ITEM: TIMESTEP
1
ITEM: NUMBER OF ATOMS
256
ITEM: BOX BOUNDS pp pp pp
0.0000000000000000e+00 1.6199999999999999e+01
0.0000000000000000e+00 1.6199999999999999e+01
0.0000000000000000e+00 1.6199999999999999e+01
ITEM: ATOMS id type x y z c_pot
1 1 7.34462e-19 7.39424e-19 7.38184e-19 -3.31832
2 1 2.025 2.025 9.20869e-19 -3.31832
3 1 2.025 9.64291e-19 2.025 -3.31832
4 1 9.6274e-19 2.025 2.025 -3.31832
5 1 8.4612e-19 8.43638e-19 4.05 -3.31832
6 1 2.025 2.025 4.05 -3.31832
7 1 2.025 8.25339e-19 6.075 -3.31832
8 1 8.58526e-19 2.025 6.075 -3.31832
9 1 7.34462e-19 6.9228e-19 8.1 -3.31832
10 1 2.025 2.025 8.1 -3.31832
11 1 2.025 9.2397e-19 10.125 -3.31832
12 1 9.32965e-19 2.025 10.125 -3.31832
13 1 8.28751e-19 8.0766e-19 12.15 -3.31832
14 1 2.025 2.025 12.15 -3.31832
15 1 2.025 8.59457e-19 14.175 -3.31832
16 1 8.53564e-19 2.025 14.175 -3.31832
17 1 8.36195e-19 4.05 8.02697e-19 -3.31832
18 1 2.025 6.075 7.77884e-19 -3.31832
19 1 2.025 4.05 2.025 -3.31832
20 1 8.38676e-19 6.075 2.025 -3.31832
21 1 9.2304e-19 4.05 4.05 -3.31832
22 1 2.025 6.075 4.05 -3.31832
23 1 2.025 4.05 6.075 -3.31832
24 1 6.84836e-19 6.075 6.075 -3.31832
25 1 8.06419e-19 4.05 8.1 -3.31832
26 1 2.025 6.075 8.1 -3.31832
27 1 2.025 4.05 10.125 -3.31832
28 1 7.46868e-19 6.075 10.125 -3.31832
29 1 8.88302e-19 4.05 12.15 -3.31832
30 1 2.025 6.075 12.15 -3.31832
31 1 2.025 4.05 14.175 -3.31832
32 1 6.79873e-19 6.075 14.175 -3.31832
33 1 7.24537e-19 8.1 6.58782e-19 -3.31832
34 1 2.025 10.125 8.86751e-19 -3.31832
35 1 2.025 8.1 2.025 -3.31832
36 1 9.32965e-19 10.125 2.025 -3.31832
37 1 7.94013e-19 8.1 4.05 -3.31832
38 1 2.025 10.125 4.05 -3.31832
39 1 2.025 8.1 6.075 -3.31832
40 1 7.66718e-19 10.125 6.075 -3.31832
41 1 6.74911e-19 8.1 8.1 -3.31832
42 1 2.025 10.125 8.1 -3.31832
43 1 2.025 8.1 10.125 -3.31832
44 1 9.08152e-19 10.125 10.125 -3.31832
45 1 7.8905e-19 8.1 12.15 -3.31832
46 1 2.025 10.125 12.15 -3.31832
47 1 2.025 8.1 14.175 -3.31832
48 1 8.21307e-19 10.125 14.175 -3.31832
49 1 8.43638e-19 12.15 8.05954e-19 -3.31832
50 1 2.025 14.175 8.34799e-19 -3.31832
51 1 2.025 12.15 2.025 -3.31832
52 1 8.43638e-19 14.175 2.025 -3.31832
53 1 9.18077e-19 12.15 4.05 -3.31832
54 1 2.025 14.175 4.05 -3.31832
55 1 2.025 12.15 6.075 -3.31832
56 1 6.99724e-19 14.175 6.075 -3.31832
57 1 7.94013e-19 12.15 8.1 -3.31832
58 1 2.025 14.175 8.1 -3.31832
59 1 2.025 12.15 10.125 -3.31832
60 1 8.089e-19 14.175 10.125 -3.31832
61 1 9.28002e-19 12.15 12.15 -3.31832
62 1 2.025 14.175 12.15 -3.31832
63 1 2.025 12.15 14.175 -3.31832
64 1 6.91039e-19 14.175 14.175 -3.31832
65 1 4.05 8.4863e-19 8.22577e-19 -3.31832
66 1 6.075 2.025 7.53382e-19 -3.31832
67 1 6.075 7.98975e-19 2.025 -3.31832
68 1 4.05 2.025 2.025 -3.31832
69 1 4.05 9.23069e-19 4.05 -3.31832
70 1 6.075 2.025 4.05 -3.31832
71 1 6.075 6.99724e-19 6.075 -3.31832
72 1 4.05 2.025 6.075 -3.31832
73 1 4.05 7.99004e-19 8.1 -3.31832
74 1 6.075 2.025 8.1 -3.31832
75 1 6.075 7.94013e-19 10.125 -3.31832
76 1 4.05 2.025 10.125 -3.31832
77 1 4.05 9.47882e-19 12.15 -3.31832
78 1 6.075 2.025 12.15 -3.31832
79 1 6.075 7.24537e-19 14.175 -3.31832
80 1 4.05 2.025 14.175 -3.31832
81 1 4.05 4.05 8.78435e-19 -3.31832
82 1 6.075 6.075 6.40173e-19 -3.31832
83 1 6.075 4.05 2.025 -3.31832
84 1 4.05 6.075 2.025 -3.31832
85 1 4.05 4.05 4.05 -3.31832
86 1 6.075 6.075 4.05 -3.31832
87 1 6.075 4.05 6.075 -3.31832
88 1 4.05 6.075 6.075 -3.31832
89 1 4.05 4.05 8.1 -3.31832
90 1 6.075 6.075 8.1 -3.31832
91 1 6.075 4.05 10.125 -3.31832
92 1 4.05 6.075 10.125 -3.31832
93 1 4.05 4.05 12.15 -3.31832
94 1 6.075 6.075 12.15 -3.31832
95 1 6.075 4.05 14.175 -3.31832
96 1 4.05 6.075 14.175 -3.31832
97 1 4.05 8.1 7.49378e-19 -3.31832
98 1 6.075 10.125 7.56464e-19 -3.31832
99 1 6.075 8.1 2.025 -3.31832
100 1 4.05 10.125 2.025 -3.31832
101 1 4.05 8.1 4.05 -3.31832
102 1 6.075 10.125 4.05 -3.31832
103 1 6.075 8.1 6.075 -3.31832
104 1 4.05 10.125 6.075 -3.31832
105 1 4.05 8.1 8.1 -3.31832
106 1 6.075 10.125 8.1 -3.31832
107 1 6.075 8.1 10.125 -3.31832
108 1 4.05 10.125 10.125 -3.31832
109 1 4.05 8.1 12.15 -3.31832
110 1 6.075 10.125 12.15 -3.31832
111 1 6.075 8.1 14.175 -3.31832
112 1 4.05 10.125 14.175 -3.31832
113 1 4.05 12.15 9.13454e-19 -3.31832
114 1 6.075 14.175 6.9228e-19 -3.31832
115 1 6.075 12.15 2.025 -3.31832
116 1 4.05 14.175 2.025 -3.31832
117 1 4.05 12.15 4.05 -3.31832
118 1 6.075 14.175 4.05 -3.31832
119 1 6.075 12.15 6.075 -3.31832
120 1 4.05 14.175 6.075 -3.31832
121 1 4.05 12.15 8.1 -3.31832
122 1 6.075 14.175 8.1 -3.31832
123 1 6.075 12.15 10.125 -3.31832
124 1 4.05 14.175 10.125 -3.31832
125 1 4.05 12.15 12.15 -3.31832
126 1 6.075 14.175 12.15 -3.31832
127 1 6.075 12.15 14.175 -3.31832
128 1 4.05 14.175 14.175 -3.31832
129 1 8.1 7.14611e-19 6.62504e-19 -3.31832
130 1 10.125 2.025 8.56956e-19 -3.31832
131 1 10.125 9.05341e-19 2.025 -3.31832
132 1 8.1 2.025 2.025 -3.31832
133 1 8.1 7.8905e-19 4.05 -3.31832
134 1 10.125 2.025 4.05 -3.31832
135 1 10.125 8.01127e-19 6.075 -3.31832
136 1 8.1 2.025 6.075 -3.31832
137 1 8.1 6.84836e-19 8.1 -3.31832
138 1 10.125 2.025 8.1 -3.31832
139 1 10.125 9.17748e-19 10.125 -3.31832
140 1 8.1 2.025 10.125 -3.31832
141 1 8.1 8.13863e-19 12.15 -3.31832
142 1 10.125 2.025 12.15 -3.31832
143 1 10.125 8.55725e-19 14.175 -3.31832
144 1 8.1 2.025 14.175 -3.31832
145 1 8.1 4.05 7.24566e-19 -3.31832
146 1 10.125 6.075 7.26688e-19 -3.31832
147 1 10.125 4.05 2.025 -3.31832
148 1 8.1 6.075 2.025 -3.31832
149 1 8.1 4.05 4.05 -3.31832
150 1 10.125 6.075 4.05 -3.31832
151 1 10.125 4.05 6.075 -3.31832
152 1 8.1 6.075 6.075 -3.31832
153 1 8.1 4.05 8.1 -3.31832
154 1 10.125 6.075 8.1 -3.31832
155 1 10.125 4.05 10.125 -3.31832
156 1 8.1 6.075 10.125 -3.31832
157 1 8.1 4.05 12.15 -3.31832
158 1 10.125 6.075 12.15 -3.31832
159 1 10.125 4.05 14.175 -3.31832
160 1 8.1 6.075 14.175 -3.31832
161 1 8.1 8.1 6.30248e-19 -3.31832
162 1 10.125 10.125 8.47942e-19 -3.31832
163 1 10.125 8.1 2.025 -3.31832
164 1 8.1 10.125 2.025 -3.31832
165 1 8.1 8.1 4.05 -3.31832
166 1 10.125 10.125 4.05 -3.31832
167 1 10.125 8.1 6.075 -3.31832
168 1 8.1 10.125 6.075 -3.31832
169 1 8.1 8.1 8.1 -3.31832
170 1 10.125 10.125 8.1 -3.31832
171 1 10.125 8.1 10.125 -3.31832
172 1 8.1 10.125 10.125 -3.31832
173 1 8.1 8.1 12.15 -3.31832
174 1 10.125 10.125 12.15 -3.31832
175 1 10.125 8.1 14.175 -3.31832
176 1 8.1 10.125 14.175 -3.31832
177 1 8.1 12.15 7.57103e-19 -3.31832
178 1 10.125 14.175 8.12302e-19 -3.31832
179 1 10.125 12.15 2.025 -3.31832
180 1 8.1 14.175 2.025 -3.31832
181 1 8.1 12.15 4.05 -3.31832
182 1 10.125 14.175 4.05 -3.31832
183 1 10.125 12.15 6.075 -3.31832
184 1 8.1 14.175 6.075 -3.31832
185 1 8.1 12.15 8.1 -3.31832
186 1 10.125 14.175 8.1 -3.31832
187 1 10.125 12.15 10.125 -3.31832
188 1 8.1 14.175 10.125 -3.31832
189 1 8.1 12.15 12.15 -3.31832
190 1 10.125 14.175 12.15 -3.31832
191 1 10.125 12.15 14.175 -3.31832
192 1 8.1 14.175 14.175 -3.31832
193 1 12.15 8.4674e-19 8.23168e-19 -3.31832
194 1 14.175 2.025 8.31232e-19 -3.31832
195 1 14.175 8.51082e-19 2.025 -3.31832
196 1 12.15 2.025 2.025 -3.31832
197 1 12.15 9.02879e-19 4.05 -3.31832
198 1 14.175 2.025 4.05 -3.31832
199 1 14.175 7.09649e-19 6.075 -3.31832
200 1 12.15 2.025 6.075 -3.31832
201 1 12.15 8.11692e-19 8.1 -3.31832
202 1 14.175 2.025 8.1 -3.31832
203 1 14.175 7.96494e-19 10.125 -3.31832
204 1 12.15 2.025 10.125 -3.31832
205 1 12.15 9.26141e-19 12.15 -3.31832
206 1 14.175 2.025 12.15 -3.31832
207 1 14.175 7.17093e-19 14.175 -3.31832
208 1 12.15 2.025 14.175 -3.31832
209 1 12.15 4.05 8.71243e-19 -3.31832
210 1 14.175 6.075 6.42654e-19 -3.31832
211 1 14.175 4.05 2.025 -3.31832
212 1 12.15 6.075 2.025 -3.31832
213 1 12.15 4.05 4.05 -3.31832
214 1 14.175 6.075 4.05 -3.31832
215 1 14.175 4.05 6.075 -3.31832
216 1 12.15 6.075 6.075 -3.31832
217 1 12.15 4.05 8.1 -3.31832
218 1 14.175 6.075 8.1 -3.31832
219 1 14.175 4.05 10.125 -3.31832
220 1 12.15 6.075 10.125 -3.31832
221 1 12.15 4.05 12.15 -3.31832
222 1 14.175 6.075 12.15 -3.31832
223 1 14.175 4.05 14.175 -3.31832
224 1 12.15 6.075 14.175 -3.31832
225 1 12.15 8.1 7.27328e-19 -3.31832
226 1 14.175 10.125 7.692e-19 -3.31832
227 1 14.175 8.1 2.025 -3.31832
228 1 12.15 10.125 2.025 -3.31832
229 1 12.15 8.1 4.05 -3.31832
230 1 14.175 10.125 4.05 -3.31832
231 1 14.175 8.1 6.075 -3.31832
232 1 12.15 10.125 6.075 -3.31832
233 1 12.15 8.1 8.1 -3.31832
234 1 14.175 10.125 8.1 -3.31832
235 1 14.175 8.1 10.125 -3.31832
236 1 12.15 10.125 10.125 -3.31832
237 1 12.15 8.1 12.15 -3.31832
238 1 14.175 10.125 12.15 -3.31832
239 1 14.175 8.1 14.175 -3.31832
240 1 12.15 10.125 14.175 -3.31832
241 1 12.15 12.15 9.06601e-19 -3.31832
242 1 14.175 14.175 7.33221e-19 -3.31832
243 1 14.175 12.15 2.025 -3.31832
244 1 12.15 14.175 2.025 -3.31832
245 1 12.15 12.15 4.05 -3.31832
246 1 14.175 14.175 4.05 -3.31832
247 1 14.175 12.15 6.075 -3.31832
248 1 12.15 14.175 6.075 -3.31832
249 1 12.15 12.15 8.1 -3.31832
250 1 14.175 14.175 8.1 -3.31832
251 1 14.175 12.15 10.125 -3.31832
252 1 12.15 14.175 10.125 -3.31832
253 1 12.15 12.15 12.15 -3.31832
254 1 14.175 14.175 12.15 -3.31832
255 1 14.175 12.15 14.175 -3.31832
256 1 12.15 14.175 14.175 -3.31832
