LAMMPS Al FCC crystal

256 atoms
1 atom types

0.0 16.2 xlo xhi
0.0 16.2 ylo yhi
0.0 16.2 zlo zhi

Masses

1 26.98

Atoms

1 1 0.000000 0.000000 0.000000
2 1 2.025000 2.025000 0.000000
3 1 2.025000 0.000000 2.025000
4 1 0.000000 2.025000 2.025000
5 1 0.000000 0.000000 4.050000
6 1 2.025000 2.025000 4.050000
7 1 2.025000 0.000000 6.075000
8 1 0.000000 2.025000 6.075000
9 1 0.000000 0.000000 8.100000
10 1 2.025000 2.025000 8.100000
11 1 2.025000 0.000000 10.125000
12 1 0.000000 2.025000 10.125000
13 1 0.000000 0.000000 12.150000
14 1 2.025000 2.025000 12.150000
15 1 2.025000 0.000000 14.175000
16 1 0.000000 2.025000 14.175000
17 1 0.000000 4.050000 0.000000
18 1 2.025000 6.075000 0.000000
19 1 2.025000 4.050000 2.025000
20 1 0.000000 6.075000 2.025000
21 1 0.000000 4.050000 4.050000
22 1 2.025000 6.075000 4.050000
23 1 2.025000 4.050000 6.075000
24 1 0.000000 6.075000 6.075000
25 1 0.000000 4.050000 8.100000
26 1 2.025000 6.075000 8.100000
27 1 2.025000 4.050000 10.125000
28 1 0.000000 6.075000 10.125000
29 1 0.000000 4.050000 12.150000
30 1 2.025000 6.075000 12.150000
31 1 2.025000 4.050000 14.175000
32 1 0.000000 6.075000 14.175000
33 1 0.000000 8.100000 0.000000
34 1 2.025000 10.125000 0.000000
35 1 2.025000 8.100000 2.025000
36 1 0.000000 10.125000 2.025000
37 1 0.000000 8.100000 4.050000
38 1 2.025000 10.125000 4.050000
39 1 2.025000 8.100000 6.075000
40 1 0.000000 10.125000 6.075000
41 1 0.000000 8.100000 8.100000
42 1 2.025000 10.125000 8.100000
43 1 2.025000 8.100000 10.125000
44 1 0.000000 10.125000 10.125000
45 1 0.000000 8.100000 12.150000
46 1 2.025000 10.125000 12.150000
47 1 2.025000 8.100000 14.175000
48 1 0.000000 10.125000 14.175000
49 1 0.000000 12.150000 0.000000
50 1 2.025000 14.175000 0.000000
51 1 2.025000 12.150000 2.025000
52 1 0.000000 14.175000 2.025000
53 1 0.000000 12.150000 4.050000
54 1 2.025000 14.175000 4.050000
55 1 2.025000 12.150000 6.075000
56 1 0.000000 14.175000 6.075000
57 1 0.000000 12.150000 8.100000
58 1 2.025000 14.175000 8.100000
59 1 2.025000 12.150000 10.125000
60 1 0.000000 14.175000 10.125000
61 1 0.000000 12.150000 12.150000
62 1 2.025000 14.175000 12.150000
63 1 2.025000 12.150000 14.175000
64 1 0.000000 14.175000 14.175000
65 1 4.050000 0.000000 0.000000
66 1 6.075000 2.025000 0.000000
67 1 6.075000 0.000000 2.025000
68 1 4.050000 2.025000 2.025000
69 1 4.050000 0.000000 4.050000
70 1 6.075000 2.025000 4.050000
71 1 6.075000 0.000000 6.075000
72 1 4.050000 2.025000 6.075000
73 1 4.050000 0.000000 8.100000
74 1 6.075000 2.025000 8.100000
75 1 6.075000 0.000000 10.125000
76 1 4.050000 2.025000 10.125000
77 1 4.050000 0.000000 12.150000
78 1 6.075000 2.025000 12.150000
79 1 6.075000 0.000000 14.175000
80 1 4.050000 2.025000 14.175000
81 1 4.050000 4.050000 0.000000
82 1 6.075000 6.075000 0.000000
83 1 6.075000 4.050000 2.025000
84 1 4.050000 6.075000 2.025000
85 1 4.050000 4.050000 4.050000
86 1 6.075000 6.075000 4.050000
87 1 6.075000 4.050000 6.075000
88 1 4.050000 6.075000 6.075000
89 1 4.050000 4.050000 8.100000
90 1 6.075000 6.075000 8.100000
91 1 6.075000 4.050000 10.125000
92 1 4.050000 6.075000 10.125000
93 1 4.050000 4.050000 12.150000
94 1 6.075000 6.075000 12.150000
95 1 6.075000 4.050000 14.175000
96 1 4.050000 6.075000 14.175000
97 1 4.050000 8.100000 0.000000
98 1 6.075000 10.125000 0.000000
99 1 6.075000 8.100000 2.025000
100 1 4.050000 10.125000 2.025000
101 1 4.050000 8.100000 4.050000
102 1 6.075000 10.125000 4.050000
103 1 6.075000 8.100000 6.075000
104 1 4.050000 10.125000 6.075000
105 1 4.050000 8.100000 8.100000
106 1 6.075000 10.125000 8.100000
107 1 6.075000 8.100000 10.125000
108 1 4.050000 10.125000 10.125000
109 1 4.050000 8.100000 12.150000
110 1 6.075000 10.125000 12.150000
111 1 6.075000 8.100000 14.175000
112 1 4.050000 10.125000 14.175000
113 1 4.050000 12.150000 0.000000
114 1 6.075000 14.175000 0.000000
115 1 6.075000 12.150000 2.025000
116 1 4.050000 14.175000 2.025000
117 1 4.050000 12.150000 4.050000
118 1 6.075000 14.175000 4.050000
119 1 6.075000 12.150000 6.075000
120 1 4.050000 14.175000 6.075000
121 1 4.050000 12.150000 8.100000
122 1 6.075000 14.175000 8.100000
123 1 6.075000 12.150000 10.125000
124 1 4.050000 14.175000 10.125000
125 1 4.050000 12.150000 12.150000
126 1 6.075000 14.175000 12.150000
127 1 6.075000 12.150000 14.175000
128 1 4.050000 14.175000 14.175000
129 1 8.100000 0.000000 0.000000
130 1 10.125000 2.025000 0.000000
131 1 10.125000 0.000000 2.025000
132 1 8.100000 2.025000 2.025000
133 1 8.100000 0.000000 4.050000
134 1 10.125000 2.025000 4.050000
135 1 10.125000 0.000000 6.075000
136 1 8.100000 2.025000 6.075000
137 1 8.100000 0.000000 8.100000
138 1 10.125000 2.025000 8.100000
139 1 10.125000 0.000000 10.125000
140 1 8.100000 2.025000 10.125000
141 1 8.100000 0.000000 12.150000
142 1 10.125000 2.025000 12.150000
143 1 10.125000 0.000000 14.175000
144 1 8.100000 2.025000 14.175000
145 1 8.100000 4.050000 0.000000
146 1 10.125000 6.075000 0.000000
147 1 10.125000 4.050000 2.025000
148 1 8.100000 6.075000 2.025000
149 1 8.100000 4.050000 4.050000
150 1 10.125000 6.075000 4.050000
151 1 10.125000 4.050000 6.075000
152 1 8.100000 6.075000 6.075000
153 1 8.100000 4.050000 8.100000
154 1 10.125000 6.075000 8.100000
155 1 10.125000 4.050000 10.125000
156 1 8.100000 6.075000 10.125000
157 1 8.100000 4.050000 12.150000
158 1 10.125000 6.075000 12.150000
159 1 10.125000 4.050000 14.175000
160 1 8.100000 6.075000 14.175000
161 1 8.100000 8.100000 0.000000
162 1 10.125000 10.125000 0.000000
163 1 10.125000 8.100000 2.025000
164 1 8.100000 10.125000 2.025000
165 1 8.100000 8.100000 4.050000
166 1 10.125000 10.125000 4.050000
167 1 10.125000 8.100000 6.075000
168 1 8.100000 10.125000 6.075000
169 1 8.100000 8.100000 8.100000
170 1 10.125000 10.125000 8.100000
171 1 10.125000 8.100000 10.125000
172 1 8.100000 10.125000 10.125000
173 1 8.100000 8.100000 12.150000
174 1 10.125000 10.125000 12.150000
175 1 10.125000 8.100000 14.175000
176 1 8.100000 10.125000 14.175000
177 1 8.100000 12.150000 0.000000
178 1 10.125000 14.175000 0.000000
179 1 10.125000 12.150000 2.025000
180 1 8.100000 14.175000 2.025000
181 1 8.100000 12.150000 4.050000
182 1 10.125000 14.175000 4.050000
183 1 10.125000 12.150000 6.075000
184 1 8.100000 14.175000 6.075000
185 1 8.100000 12.150000 8.100000
186 1 10.125000 14.175000 8.100000
187 1 10.125000 12.150000 10.125000
188 1 8.100000 14.175000 10.125000
189 1 8.100000 12.150000 12.150000
190 1 10.125000 14.175000 12.150000
191 1 10.125000 12.150000 14.175000
192 1 8.100000 14.175000 14.175000
193 1 12.150000 0.000000 0.000000
194 1 14.175000 2.025000 0.000000
195 1 14.175000 0.000000 2.025000
196 1 12.150000 2.025000 2.025000
197 1 12.150000 0.000000 4.050000
198 1 14.175000 2.025000 4.050000
199 1 14.175000 0.000000 6.075000
200 1 12.150000 2.025000 6.075000
201 1 12.150000 0.000000 8.100000
202 1 14.175000 2.025000 8.100000
203 1 14.175000 0.000000 10.125000
204 1 12.150000 2.025000 10.125000
205 1 12.150000 0.000000 12.150000
206 1 14.175000 2.025000 12.150000
207 1 14.175000 0.000000 14.175000
208 1 12.150000 2.025000 14.175000
209 1 12.150000 4.050000 0.000000
210 1 14.175000 6.075000 0.000000
211 1 14.175000 4.050000 2.025000
212 1 12.150000 6.075000 2.025000
213 1 12.150000 4.050000 4.050000
214 1 14.175000 6.075000 4.050000
215 1 14.175000 4.050000 6.075000
216 1 12.150000 6.075000 6.075000
217 1 12.150000 4.050000 8.100000
218 1 14.175000 6.075000 8.100000
219 1 14.175000 4.050000 10.125000
220 1 12.150000 6.075000 10.125000
221 1 12.150000 4.050000 12.150000
222 1 14.175000 6.075000 12.150000
223 1 14.175000 4.050000 14.175000
224 1 12.150000 6.075000 14.175000
225 1 12.150000 8.100000 0.000000
226 1 14.175000 10.125000 0.000000
227 1 14.175000 8.100000 2.025000
228 1 12.150000 10.125000 2.025000
229 1 12.150000 8.100000 4.050000
230 1 14.175000 10.125000 4.050000
231 1 14.175000 8.100000 6.075000
232 1 12.150000 10.125000 6.075000
233 1 12.150000 8.100000 8.100000
234 1 14.175000 10.125000 8.100000
235 1 14.175000 8.100000 10.125000
236 1 12.150000 10.125000 10.125000
237 1 12.150000 8.100000 12.150000
238 1 14.175000 10.125000 12.150000
239 1 14.175000 8.100000 14.175000
240 1 12.150000 10.125000 14.175000
241 1 12.150000 12.150000 0.000000
242 1 14.175000 14.175000 0.000000
243 1 14.175000 12.150000 2.025000
244 1 12.150000 14.175000 2.025000
245 1 12.150000 12.150000 4.050000
246 1 14.175000 14.175000 4.050000
247 1 14.175000 12.150000 6.075000
248 1 12.150000 14.175000 6.075000
249 1 12.150000 12.150000 8.100000
250 1 14.175000 14.175000 8.100000
251 1 14.175000 12.150000 10.125000
252 1 12.150000 14.175000 10.125000
253 1 12.150000 12.150000 12.150000
254 1 14.175000 14.175000 12.150000
255 1 14.175000 12.150000 14.175000
256 1 12.150000 14.175000 14.175000
