LAMMPS Cu FCC crystal

256 atoms
1 atom types

0.0 14.46 xlo xhi
0.0 14.46 ylo yhi
0.0 14.46 zlo zhi

Masses

1 63.55

Atoms

1 1 0.000000 0.000000 0.000000
2 1 1.807500 1.807500 0.000000
3 1 1.807500 0.000000 1.807500
4 1 0.000000 1.807500 1.807500
5 1 0.000000 0.000000 3.615000
6 1 1.807500 1.807500 3.615000
7 1 1.807500 0.000000 5.422500
8 1 0.000000 1.807500 5.422500
9 1 0.000000 0.000000 7.230000
10 1 1.807500 1.807500 7.230000
11 1 1.807500 0.000000 9.037500
12 1 0.000000 1.807500 9.037500
13 1 0.000000 0.000000 10.845000
14 1 1.807500 1.807500 10.845000
15 1 1.807500 0.000000 12.652500
16 1 0.000000 1.807500 12.652500
17 1 0.000000 3.615000 0.000000
18 1 1.807500 5.422500 0.000000
19 1 1.807500 3.615000 1.807500
20 1 0.000000 5.422500 1.807500
21 1 0.000000 3.615000 3.615000
22 1 1.807500 5.422500 3.615000
23 1 1.807500 3.615000 5.422500
24 1 0.000000 5.422500 5.422500
25 1 0.000000 3.615000 7.230000
26 1 1.807500 5.422500 7.230000
27 1 1.807500 3.615000 9.037500
28 1 0.000000 5.422500 9.037500
29 1 0.000000 3.615000 10.845000
30 1 1.807500 5.422500 10.845000
31 1 1.807500 3.615000 12.652500
32 1 0.000000 5.422500 12.652500
33 1 0.000000 7.230000 0.000000
34 1 1.807500 9.037500 0.000000
35 1 1.807500 7.230000 1.807500
36 1 0.000000 9.037500 1.807500
37 1 0.000000 7.230000 3.615000
38 1 1.807500 9.037500 3.615000
39 1 1.807500 7.230000 5.422500
40 1 0.000000 9.037500 5.422500
41 1 0.000000 7.230000 7.230000
42 1 1.807500 9.037500 7.230000
43 1 1.807500 7.230000 9.037500
44 1 0.000000 9.037500 9.037500
45 1 0.000000 7.230000 10.845000
46 1 1.807500 9.037500 10.845000
47 1 1.807500 7.230000 12.652500
48 1 0.000000 9.037500 12.652500
49 1 0.000000 10.845000 0.000000
50 1 1.807500 12.652500 0.000000
51 1 1.807500 10.845000 1.807500
52 1 0.000000 12.652500 1.807500
53 1 0.000000 10.845000 3.615000
54 1 1.807500 12.652500 3.615000
55 1 1.807500 10.845000 5.422500
56 1 0.000000 12.652500 5.422500
57 1 0.000000 10.845000 7.230000
58 1 1.807500 12.652500 7.230000
59 1 1.807500 10.845000 9.037500
60 1 0.000000 12.652500 9.037500
61 1 0.000000 10.845000 10.845000
62 1 1.807500 12.652500 10.845000
63 1 1.807500 10.845000 12.652500
64 1 0.000000 12.652500 12.652500
65 1 3.615000 0.000000 0.000000
66 1 5.422500 1.807500 0.000000
67 1 5.422500 0.000000 1.807500
68 1 3.615000 1.807500 1.807500
69 1 3.615000 0.000000 3.615000
70 1 5.422500 1.807500 3.615000
71 1 5.422500 0.000000 5.422500
72 1 3.615000 1.807500 5.422500
73 1 3.615000 0.000000 7.230000
74 1 5.422500 1.807500 7.230000
75 1 5.422500 0.000000 9.037500
76 1 3.615000 1.807500 9.037500
77 1 3.615000 0.000000 10.845000
78 1 5.422500 1.807500 10.845000
79 1 5.422500 0.000000 12.652500
80 1 3.615000 1.807500 12.652500
81 1 3.615000 3.615000 0.000000
82 1 5.422500 5.422500 0.000000
83 1 5.422500 3.615000 1.807500
84 1 3.615000 5.422500 1.807500
85 1 3.615000 3.615000 3.615000
86 1 5.422500 5.422500 3.615000
87 1 5.422500 3.615000 5.422500
88 1 3.615000 5.422500 5.422500
89 1 3.615000 3.615000 7.230000
90 1 5.422500 5.422500 7.230000
91 1 5.422500 3.615000 9.037500
92 1 3.615000 5.422500 9.037500
93 1 3.615000 3.615000 10.845000
94 1 5.422500 5.422500 10.845000
95 1 5.422500 3.615000 12.652500
96 1 3.615000 5.422500 12.652500
97 1 3.615000 7.230000 0.000000
98 1 5.422500 9.037500 0.000000
99 1 5.422500 7.230000 1.807500
100 1 3.615000 9.037500 1.807500
101 1 3.615000 7.230000 3.615000
102 1 5.422500 9.037500 3.615000
103 1 5.422500 7.230000 5.422500
104 1 3.615000 9.037500 5.422500
105 1 3.615000 7.230000 7.230000
106 1 5.422500 9.037500 7.230000
107 1 5.422500 7.230000 9.037500
108 1 3.615000 9.037500 9.037500
109 1 3.615000 7.230000 10.845000
110 1 5.422500 9.037500 10.845000
111 1 5.422500 7.230000 12.652500
112 1 3.615000 9.037500 12.652500
113 1 3.615000 10.845000 0.000000
114 1 5.422500 12.652500 0.000000
115 1 5.422500 10.845000 1.807500
116 1 3.615000 12.652500 1.807500
117 1 3.615000 10.845000 3.615000
118 1 5.422500 12.652500 3.615000
119 1 5.422500 10.845000 5.422500
120 1 3.615000 12.652500 5.422500
121 1 3.615000 10.845000 7.230000
122 1 5.422500 12.652500 7.230000
123 1 5.422500 10.845000 9.037500
124 1 3.615000 12.652500 9.037500
125 1 3.615000 10.845000 10.845000
126 1 5.422500 12.652500 10.845000
127 1 5.422500 10.845000 12.652500
128 1 3.615000 12.652500 12.652500
129 1 7.230000 0.000000 0.000000
130 1 9.037500 1.807500 0.000000
131 1 9.037500 0.000000 1.807500
132 1 7.230000 1.807500 1.807500
133 1 7.230000 0.000000 3.615000
134 1 9.037500 1.807500 3.615000
135 1 9.037500 0.000000 5.422500
136 1 7.230000 1.807500 5.422500
137 1 7.230000 0.000000 7.230000
138 1 9.037500 1.807500 7.230000
139 1 9.037500 0.000000 9.037500
140 1 7.230000 1.807500 9.037500
141 1 7.230000 0.000000 10.845000
142 1 9.037500 1.807500 10.845000
143 1 9.037500 0.000000 12.652500
144 1 7.230000 1.807500 12.652500
145 1 7.230000 3.615000 0.000000
146 1 9.037500 5.422500 0.000000
147 1 9.037500 3.615000 1.807500
148 1 7.230000 5.422500 1.807500
149 1 7.230000 3.615000 3.615000
150 1 9.037500 5.422500 3.615000
151 1 9.037500 3.615000 5.422500
152 1 7.230000 5.422500 5.422500
153 1 7.230000 3.615000 7.230000
154 1 9.037500 5.422500 7.230000
155 1 9.037500 3.615000 9.037500
156 1 7.230000 5.422500 9.037500
157 1 7.230000 3.615000 10.845000
158 1 9.037500 5.422500 10.845000
159 1 9.037500 3.615000 12.652500
160 1 7.230000 5.422500 12.652500
161 1 7.230000 7.230000 0.000000
162 1 9.037500 9.037500 0.000000
163 1 9.037500 7.230000 1.807500
164 1 7.230000 9.037500 1.807500
165 1 7.230000 7.230000 3.615000
166 1 9.037500 9.037500 3.615000
167 1 9.037500 7.230000 5.422500
168 1 7.230000 9.037500 5.422500
169 1 7.230000 7.230000 7.230000
170 1 9.037500 9.037500 7.230000
171 1 9.037500 7.230000 9.037500
172 1 7.230000 9.037500 9.037500
173 1 7.230000 7.230000 10.845000
174 1 9.037500 9.037500 10.845000
175 1 9.037500 7.230000 12.652500
176 1 7.230000 9.037500 12.652500
177 1 7.230000 10.845000 0.000000
178 1 9.037500 12.652500 0.000000
179 1 9.037500 10.845000 1.807500
180 1 7.230000 12.652500 1.807500
181 1 7.230000 10.845000 3.615000
182 1 9.037500 12.652500 3.615000
183 1 9.037500 10.845000 5.422500
184 1 7.230000 12.652500 5.422500
185 1 7.230000 10.845000 7.230000
186 1 9.037500 12.652500 7.230000
187 1 9.037500 10.845000 9.037500
188 1 7.230000 12.652500 9.037500
189 1 7.230000 10.845000 10.845000
190 1 9.037500 12.652500 10.845000
191 1 9.037500 10.845000 12.652500
192 1 7.230000 12.652500 12.652500
193 1 10.845000 0.000000 0.000000
194 1 12.652500 1.807500 0.000000
195 1 12.652500 0.000000 1.807500
196 1 10.845000 1.807500 1.807500
197 1 10.845000 0.000000 3.615000
198 1 12.652500 1.807500 3.615000
199 1 12.652500 0.000000 5.422500
200 1 10.845000 1.807500 5.422500
201 1 10.845000 0.000000 7.230000
202 1 12.652500 1.807500 7.230000
203 1 12.652500 0.000000 9.037500
204 1 10.845000 1.807500 9.037500
205 1 10.845000 0.000000 10.845000
206 1 12.652500 1.807500 10.845000
207 1 12.652500 0.000000 12.652500
208 1 10.845000 1.807500 12.652500
209 1 10.845000 3.615000 0.000000
210 1 12.652500 5.422500 0.000000
211 1 12.652500 3.615000 1.807500
212 1 10.845000 5.422500 1.807500
213 1 10.845000 3.615000 3.615000
214 1 12.652500 5.422500 3.615000
215 1 12.652500 3.615000 5.422500
216 1 10.845000 5.422500 5.422500
217 1 10.845000 3.615000 7.230000
218 1 12.652500 5.422500 7.230000
219 1 12.652500 3.615000 9.037500
220 1 10.845000 5.422500 9.037500
221 1 10.845000 3.615000 10.845000
222 1 12.652500 5.422500 10.845000
223 1 12.652500 3.615000 12.652500
224 1 10.845000 5.422500 12.652500
225 1 10.845000 7.230000 0.000000
226 1 12.652500 9.037500 0.000000
227 1 12.652500 7.230000 1.807500
228 1 10.845000 9.037500 1.807500
229 1 10.845000 7.230000 3.615000
230 1 12.652500 9.037500 3.615000
231 1 12.652500 7.230000 5.422500
232 1 10.845000 9.037500 5.422500
233 1 10.845000 7.230000 7.230000
234 1 12.652500 9.037500 7.230000
235 1 12.652500 7.230000 9.037500
236 1 10.845000 9.037500 9.037500
237 1 10.845000 7.230000 10.845000
238 1 12.652500 9.037500 10.845000
239 1 12.652500 7.230000 12.652500
240 1 10.845000 9.037500 12.652500
241 1 10.845000 10.845000 0.000000
242 1 12.652500 12.652500 0.000000
243 1 12.652500 10.845000 1.807500
244 1 10.845000 12.652500 1.807500
245 1 10.845000 10.845000 3.615000
246 1 12.652500 12.652500 3.615000
247 1 12.652500 10.845000 5.422500
248 1 10.845000 12.652500 5.422500
249 1 10.845000 10.845000 7.230000
250 1 12.652500 12.652500 7.230000
251 1 12.652500 10.845000 9.037500
252 1 10.845000 12.652500 9.037500
253 1 10.845000 10.845000 10.845000
254 1 12.652500 12.652500 10.845000
255 1 12.652500 10.845000 12.652500
256 1 10.845000 12.652500 12.652500
