LAMMPS Cu FCC crystal

864 atoms
1 atom types

0.0 21.69 xlo xhi
0.0 21.69 ylo yhi
0.0 21.69 zlo zhi

Masses

1 63.55

Atoms

1 1 0.000000 0.000000 0.000000
2 1 1.807500 1.807500 0.000000
3 1 1.807500 0.000000 1.807500
4 1 0.000000 1.807500 1.807500
5 1 0.000000 0.000000 3.615000
6 1 1.807500 1.807500 3.615000
7 1 1.807500 0.000000 5.422500
8 1 0.000000 1.807500 5.422500
9 1 0.000000 0.000000 7.230000
10 1 1.807500 1.807500 7.230000
11 1 1.807500 0.000000 9.037500
12 1 0.000000 1.807500 9.037500
13 1 0.000000 0.000000 10.845000
14 1 1.807500 1.807500 10.845000
15 1 1.807500 0.000000 12.652500
16 1 0.000000 1.807500 12.652500
17 1 0.000000 0.000000 14.460000
18 1 1.807500 1.807500 14.460000
19 1 1.807500 0.000000 16.267500
20 1 0.000000 1.807500 16.267500
21 1 0.000000 0.000000 18.075000
22 1 1.807500 1.807500 18.075000
23 1 1.807500 0.000000 19.882500
24 1 0.000000 1.807500 19.882500
25 1 0.000000 3.615000 0.000000
26 1 1.807500 5.422500 0.000000
27 1 1.807500 3.615000 1.807500
28 1 0.000000 5.422500 1.807500
29 1 0.000000 3.615000 3.615000
30 1 1.807500 5.422500 3.615000
31 1 1.807500 3.615000 5.422500
32 1 0.000000 5.422500 5.422500
33 1 0.000000 3.615000 7.230000
34 1 1.807500 5.422500 7.230000
35 1 1.807500 3.615000 9.037500
36 1 0.000000 5.422500 9.037500
37 1 0.000000 3.615000 10.845000
38 1 1.807500 5.422500 10.845000
39 1 1.807500 3.615000 12.652500
40 1 0.000000 5.422500 12.652500
41 1 0.000000 3.615000 14.460000
42 1 1.807500 5.422500 14.460000
43 1 1.807500 3.615000 16.267500
44 1 0.000000 5.422500 16.267500
45 1 0.000000 3.615000 18.075000
46 1 1.807500 5.422500 18.075000
47 1 1.807500 3.615000 19.882500
48 1 0.000000 5.422500 19.882500
49 1 0.000000 7.230000 0.000000
50 1 1.807500 9.037500 0.000000
51 1 1.807500 7.230000 1.807500
52 1 0.000000 9.037500 1.807500
53 1 0.000000 7.230000 3.615000
54 1 1.807500 9.037500 3.615000
55 1 1.807500 7.230000 5.422500
56 1 0.000000 9.037500 5.422500
57 1 0.000000 7.230000 7.230000
58 1 1.807500 9.037500 7.230000
59 1 1.807500 7.230000 9.037500
60 1 0.000000 9.037500 9.037500
61 1 0.000000 7.230000 10.845000
62 1 1.807500 9.037500 10.845000
63 1 1.807500 7.230000 12.652500
64 1 0.000000 9.037500 12.652500
65 1 0.000000 7.230000 14.460000
66 1 1.807500 9.037500 14.460000
67 1 1.807500 7.230000 16.267500
68 1 0.000000 9.037500 16.267500
69 1 0.000000 7.230000 18.075000
70 1 1.807500 9.037500 18.075000
71 1 1.807500 7.230000 19.882500
72 1 0.000000 9.037500 19.882500
73 1 0.000000 10.845000 0.000000
74 1 1.807500 12.652500 0.000000
75 1 1.807500 10.845000 1.807500
76 1 0.000000 12.652500 1.807500
77 1 0.000000 10.845000 3.615000
78 1 1.807500 12.652500 3.615000
79 1 1.807500 10.845000 5.422500
80 1 0.000000 12.652500 5.422500
81 1 0.000000 10.845000 7.230000
82 1 1.807500 12.652500 7.230000
83 1 1.807500 10.845000 9.037500
84 1 0.000000 12.652500 9.037500
85 1 0.000000 10.845000 10.845000
86 1 1.807500 12.652500 10.845000
87 1 1.807500 10.845000 12.652500
88 1 0.000000 12.652500 12.652500
89 1 0.000000 10.845000 14.460000
90 1 1.807500 12.652500 14.460000
91 1 1.807500 10.845000 16.267500
92 1 0.000000 12.652500 16.267500
93 1 0.000000 10.845000 18.075000
94 1 1.807500 12.652500 18.075000
95 1 1.807500 10.845000 19.882500
96 1 0.000000 12.652500 19.882500
97 1 0.000000 14.460000 0.000000
98 1 1.807500 16.267500 0.000000
99 1 1.807500 14.460000 1.807500
100 1 0.000000 16.267500 1.807500
101 1 0.000000 14.460000 3.615000
102 1 1.807500 16.267500 3.615000
103 1 1.807500 14.460000 5.422500
104 1 0.000000 16.267500 5.422500
105 1 0.000000 14.460000 7.230000
106 1 1.807500 16.267500 7.230000
107 1 1.807500 14.460000 9.037500
108 1 0.000000 16.267500 9.037500
109 1 0.000000 14.460000 10.845000
110 1 1.807500 16.267500 10.845000
111 1 1.807500 14.460000 12.652500
112 1 0.000000 16.267500 12.652500
113 1 0.000000 14.460000 14.460000
114 1 1.807500 16.267500 14.460000
115 1 1.807500 14.460000 16.267500
116 1 0.000000 16.267500 16.267500
117 1 0.000000 14.460000 18.075000
118 1 1.807500 16.267500 18.075000
119 1 1.807500 14.460000 19.882500
120 1 0.000000 16.267500 19.882500
121 1 0.000000 18.075000 0.000000
122 1 1.807500 19.882500 0.000000
123 1 1.807500 18.075000 1.807500
124 1 0.000000 19.882500 1.807500
125 1 0.000000 18.075000 3.615000
126 1 1.807500 19.882500 3.615000
127 1 1.807500 18.075000 5.422500
128 1 0.000000 19.882500 5.422500
129 1 0.000000 18.075000 7.230000
130 1 1.807500 19.882500 7.230000
131 1 1.807500 18.075000 9.037500
132 1 0.000000 19.882500 9.037500
133 1 0.000000 18.075000 10.845000
134 1 1.807500 19.882500 10.845000
135 1 1.807500 18.075000 12.652500
136 1 0.000000 19.882500 12.652500
137 1 0.000000 18.075000 14.460000
138 1 1.807500 19.882500 14.460000
139 1 1.807500 18.075000 16.267500
140 1 0.000000 19.882500 16.267500
141 1 0.000000 18.075000 18.075000
142 1 1.807500 19.882500 18.075000
143 1 1.807500 18.075000 19.882500
144 1 0.000000 19.882500 19.882500
145 1 3.615000 0.000000 0.000000
146 1 5.422500 1.807500 0.000000
147 1 5.422500 0.000000 1.807500
148 1 3.615000 1.807500 1.807500
149 1 3.615000 0.000000 3.615000
150 1 5.422500 1.807500 3.615000
151 1 5.422500 0.000000 5.422500
152 1 3.615000 1.807500 5.422500
153 1 3.615000 0.000000 7.230000
154 1 5.422500 1.807500 7.230000
155 1 5.422500 0.000000 9.037500
156 1 3.615000 1.807500 9.037500
157 1 3.615000 0.000000 10.845000
158 1 5.422500 1.807500 10.845000
159 1 5.422500 0.000000 12.652500
160 1 3.615000 1.807500 12.652500
161 1 3.615000 0.000000 14.460000
162 1 5.422500 1.807500 14.460000
163 1 5.422500 0.000000 16.267500
164 1 3.615000 1.807500 16.267500
165 1 3.615000 0.000000 18.075000
166 1 5.422500 1.807500 18.075000
167 1 5.422500 0.000000 19.882500
168 1 3.615000 1.807500 19.882500
169 1 3.615000 3.615000 0.000000
170 1 5.422500 5.422500 0.000000
171 1 5.422500 3.615000 1.807500
172 1 3.615000 5.422500 1.807500
173 1 3.615000 3.615000 3.615000
174 1 5.422500 5.422500 3.615000
175 1 5.422500 3.615000 5.422500
176 1 3.615000 5.422500 5.422500
177 1 3.615000 3.615000 7.230000
178 1 5.422500 5.422500 7.230000
179 1 5.422500 3.615000 9.037500
180 1 3.615000 5.422500 9.037500
181 1 3.615000 3.615000 10.845000
182 1 5.422500 5.422500 10.845000
183 1 5.422500 3.615000 12.652500
184 1 3.615000 5.422500 12.652500
185 1 3.615000 3.615000 14.460000
186 1 5.422500 5.422500 14.460000
187 1 5.422500 3.615000 16.267500
188 1 3.615000 5.422500 16.267500
189 1 3.615000 3.615000 18.075000
190 1 5.422500 5.422500 18.075000
191 1 5.422500 3.615000 19.882500
192 1 3.615000 5.422500 19.882500
193 1 3.615000 7.230000 0.000000
194 1 5.422500 9.037500 0.000000
195 1 5.422500 7.230000 1.807500
196 1 3.615000 9.037500 1.807500
197 1 3.615000 7.230000 3.615000
198 1 5.422500 9.037500 3.615000
199 1 5.422500 7.230000 5.422500
200 1 3.615000 9.037500 5.422500
201 1 3.615000 7.230000 7.230000
202 1 5.422500 9.037500 7.230000
203 1 5.422500 7.230000 9.037500
204 1 3.615000 9.037500 9.037500
205 1 3.615000 7.230000 10.845000
206 1 5.422500 9.037500 10.845000
207 1 5.422500 7.230000 12.652500
208 1 3.615000 9.037500 12.652500
209 1 3.615000 7.230000 14.460000
210 1 5.422500 9.037500 14.460000
211 1 5.422500 7.230000 16.267500
212 1 3.615000 9.037500 16.267500
213 1 3.615000 7.230000 18.075000
214 1 5.422500 9.037500 18.075000
215 1 5.422500 7.230000 19.882500
216 1 3.615000 9.037500 19.882500
217 1 3.615000 10.845000 0.000000
218 1 5.422500 12.652500 0.000000
219 1 5.422500 10.845000 1.807500
220 1 3.615000 12.652500 1.807500
221 1 3.615000 10.845000 3.615000
222 1 5.422500 12.652500 3.615000
223 1 5.422500 10.845000 5.422500
224 1 3.615000 12.652500 5.422500
225 1 3.615000 10.845000 7.230000
226 1 5.422500 12.652500 7.230000
227 1 5.422500 10.845000 9.037500
228 1 3.615000 12.652500 9.037500
229 1 3.615000 10.845000 10.845000
230 1 5.422500 12.652500 10.845000
231 1 5.422500 10.845000 12.652500
232 1 3.615000 12.652500 12.652500
233 1 3.615000 10.845000 14.460000
234 1 5.422500 12.652500 14.460000
235 1 5.422500 10.845000 16.267500
236 1 3.615000 12.652500 16.267500
237 1 3.615000 10.845000 18.075000
238 1 5.422500 12.652500 18.075000
239 1 5.422500 10.845000 19.882500
240 1 3.615000 12.652500 19.882500
241 1 3.615000 14.460000 0.000000
242 1 5.422500 16.267500 0.000000
243 1 5.422500 14.460000 1.807500
244 1 3.615000 16.267500 1.807500
245 1 3.615000 14.460000 3.615000
246 1 5.422500 16.267500 3.615000
247 1 5.422500 14.460000 5.422500
248 1 3.615000 16.267500 5.422500
249 1 3.615000 14.460000 7.230000
250 1 5.422500 16.267500 7.230000
251 1 5.422500 14.460000 9.037500
252 1 3.615000 16.267500 9.037500
253 1 3.615000 14.460000 10.845000
254 1 5.422500 16.267500 10.845000
255 1 5.422500 14.460000 12.652500
256 1 3.615000 16.267500 12.652500
257 1 3.615000 14.460000 14.460000
258 1 5.422500 16.267500 14.460000
259 1 5.422500 14.460000 16.267500
260 1 3.615000 16.267500 16.267500
261 1 3.615000 14.460000 18.075000
262 1 5.422500 16.267500 18.075000
263 1 5.422500 14.460000 19.882500
264 1 3.615000 16.267500 19.882500
265 1 3.615000 18.075000 0.000000
266 1 5.422500 19.882500 0.000000
267 1 5.422500 18.075000 1.807500
268 1 3.615000 19.882500 1.807500
269 1 3.615000 18.075000 3.615000
270 1 5.422500 19.882500 3.615000
271 1 5.422500 18.075000 5.422500
272 1 3.615000 19.882500 5.422500
273 1 3.615000 18.075000 7.230000
274 1 5.422500 19.882500 7.230000
275 1 5.422500 18.075000 9.037500
276 1 3.615000 19.882500 9.037500
277 1 3.615000 18.075000 10.845000
278 1 5.422500 19.882500 10.845000
279 1 5.422500 18.075000 12.652500
280 1 3.615000 19.882500 12.652500
281 1 3.615000 18.075000 14.460000
282 1 5.422500 19.882500 14.460000
283 1 5.422500 18.075000 16.267500
284 1 3.615000 19.882500 16.267500
285 1 3.615000 18.075000 18.075000
286 1 5.422500 19.882500 18.075000
287 1 5.422500 18.075000 19.882500
288 1 3.615000 19.882500 19.882500
289 1 7.230000 0.000000 0.000000
290 1 9.037500 1.807500 0.000000
291 1 9.037500 0.000000 1.807500
292 1 7.230000 1.807500 1.807500
293 1 7.230000 0.000000 3.615000
294 1 9.037500 1.807500 3.615000
295 1 9.037500 0.000000 5.422500
296 1 7.230000 1.807500 5.422500
297 1 7.230000 0.000000 7.230000
298 1 9.037500 1.807500 7.230000
299 1 9.037500 0.000000 9.037500
300 1 7.230000 1.807500 9.037500
301 1 7.230000 0.000000 10.845000
302 1 9.037500 1.807500 10.845000
303 1 9.037500 0.000000 12.652500
304 1 7.230000 1.807500 12.652500
305 1 7.230000 0.000000 14.460000
306 1 9.037500 1.807500 14.460000
307 1 9.037500 0.000000 16.267500
308 1 7.230000 1.807500 16.267500
309 1 7.230000 0.000000 18.075000
310 1 9.037500 1.807500 18.075000
311 1 9.037500 0.000000 19.882500
312 1 7.230000 1.807500 19.882500
313 1 7.230000 3.615000 0.000000
314 1 9.037500 5.422500 0.000000
315 1 9.037500 3.615000 1.807500
316 1 7.230000 5.422500 1.807500
317 1 7.230000 3.615000 3.615000
318 1 9.037500 5.422500 3.615000
319 1 9.037500 3.615000 5.422500
320 1 7.230000 5.422500 5.422500
321 1 7.230000 3.615000 7.230000
322 1 9.037500 5.422500 7.230000
323 1 9.037500 3.615000 9.037500
324 1 7.230000 5.422500 9.037500
325 1 7.230000 3.615000 10.845000
326 1 9.037500 5.422500 10.845000
327 1 9.037500 3.615000 12.652500
328 1 7.230000 5.422500 12.652500
329 1 7.230000 3.615000 14.460000
330 1 9.037500 5.422500 14.460000
331 1 9.037500 3.615000 16.267500
332 1 7.230000 5.422500 16.267500
333 1 7.230000 3.615000 18.075000
334 1 9.037500 5.422500 18.075000
335 1 9.037500 3.615000 19.882500
336 1 7.230000 5.422500 19.882500
337 1 7.230000 7.230000 0.000000
338 1 9.037500 9.037500 0.000000
339 1 9.037500 7.230000 1.807500
340 1 7.230000 9.037500 1.807500
341 1 7.230000 7.230000 3.615000
342 1 9.037500 9.037500 3.615000
343 1 9.037500 7.230000 5.422500
344 1 7.230000 9.037500 5.422500
345 1 7.230000 7.230000 7.230000
346 1 9.037500 9.037500 7.230000
347 1 9.037500 7.230000 9.037500
348 1 7.230000 9.037500 9.037500
349 1 7.230000 7.230000 10.845000
350 1 9.037500 9.037500 10.845000
351 1 9.037500 7.230000 12.652500
352 1 7.230000 9.037500 12.652500
353 1 7.230000 7.230000 14.460000
354 1 9.037500 9.037500 14.460000
355 1 9.037500 7.230000 16.267500
356 1 7.230000 9.037500 16.267500
357 1 7.230000 7.230000 18.075000
358 1 9.037500 9.037500 18.075000
359 1 9.037500 7.230000 19.882500
360 1 7.230000 9.037500 19.882500
361 1 7.230000 10.845000 0.000000
362 1 9.037500 12.652500 0.000000
363 1 9.037500 10.845000 1.807500
364 1 7.230000 12.652500 1.807500
365 1 7.230000 10.845000 3.615000
366 1 9.037500 12.652500 3.615000
367 1 9.037500 10.845000 5.422500
368 1 7.230000 12.652500 5.422500
369 1 7.230000 10.845000 7.230000
370 1 9.037500 12.652500 7.230000
371 1 9.037500 10.845000 9.037500
372 1 7.230000 12.652500 9.037500
373 1 7.230000 10.845000 10.845000
374 1 9.037500 12.652500 10.845000
375 1 9.037500 10.845000 12.652500
376 1 7.230000 12.652500 12.652500
377 1 7.230000 10.845000 14.460000
378 1 9.037500 12.652500 14.460000
379 1 9.037500 10.845000 16.267500
380 1 7.230000 12.652500 16.267500
381 1 7.230000 10.845000 18.075000
382 1 9.037500 12.652500 18.075000
383 1 9.037500 10.845000 19.882500
384 1 7.230000 12.652500 19.882500
385 1 7.230000 14.460000 0.000000
386 1 9.037500 16.267500 0.000000
387 1 9.037500 14.460000 1.807500
388 1 7.230000 16.267500 1.807500
389 1 7.230000 14.460000 3.615000
390 1 9.037500 16.267500 3.615000
391 1 9.037500 14.460000 5.422500
392 1 7.230000 16.267500 5.422500
393 1 7.230000 14.460000 7.230000
394 1 9.037500 16.267500 7.230000
395 1 9.037500 14.460000 9.037500
396 1 7.230000 16.267500 9.037500
397 1 7.230000 14.460000 10.845000
398 1 9.037500 16.267500 10.845000
399 1 9.037500 14.460000 12.652500
400 1 7.230000 16.267500 12.652500
401 1 7.230000 14.460000 14.460000
402 1 9.037500 16.267500 14.460000
403 1 9.037500 14.460000 16.267500
404 1 7.230000 16.267500 16.267500
405 1 7.230000 14.460000 18.075000
406 1 9.037500 16.267500 18.075000
407 1 9.037500 14.460000 19.882500
408 1 7.230000 16.267500 19.882500
409 1 7.230000 18.075000 0.000000
410 1 9.037500 19.882500 0.000000
411 1 9.037500 18.075000 1.807500
412 1 7.230000 19.882500 1.807500
413 1 7.230000 18.075000 3.615000
414 1 9.037500 19.882500 3.615000
415 1 9.037500 18.075000 5.422500
416 1 7.230000 19.882500 5.422500
417 1 7.230000 18.075000 7.230000
418 1 9.037500 19.882500 7.230000
419 1 9.037500 18.075000 9.037500
420 1 7.230000 19.882500 9.037500
421 1 7.230000 18.075000 10.845000
422 1 9.037500 19.882500 10.845000
423 1 9.037500 18.075000 12.652500
424 1 7.230000 19.882500 12.652500
425 1 7.230000 18.075000 14.460000
426 1 9.037500 19.882500 14.460000
427 1 9.037500 18.075000 16.267500
428 1 7.230000 19.882500 16.267500
429 1 7.230000 18.075000 18.075000
430 1 9.037500 19.882500 18.075000
431 1 9.037500 18.075000 19.882500
432 1 7.230000 19.882500 19.882500
433 1 10.845000 0.000000 0.000000
434 1 12.652500 1.807500 0.000000
435 1 12.652500 0.000000 1.807500
436 1 10.845000 1.807500 1.807500
437 1 10.845000 0.000000 3.615000
438 1 12.652500 1.807500 3.615000
439 1 12.652500 0.000000 5.422500
440 1 10.845000 1.807500 5.422500
441 1 10.845000 0.000000 7.230000
442 1 12.652500 1.807500 7.230000
443 1 12.652500 0.000000 9.037500
444 1 10.845000 1.807500 9.037500
445 1 10.845000 0.000000 10.845000
446 1 12.652500 1.807500 10.845000
447 1 12.652500 0.000000 12.652500
448 1 10.845000 1.807500 12.652500
449 1 10.845000 0.000000 14.460000
450 1 12.652500 1.807500 14.460000
451 1 12.652500 0.000000 16.267500
452 1 10.845000 1.807500 16.267500
453 1 10.845000 0.000000 18.075000
454 1 12.652500 1.807500 18.075000
455 1 12.652500 0.000000 19.882500
456 1 10.845000 1.807500 19.882500
457 1 10.845000 3.615000 0.000000
458 1 12.652500 5.422500 0.000000
459 1 12.652500 3.615000 1.807500
460 1 10.845000 5.422500 1.807500
461 1 10.845000 3.615000 3.615000
462 1 12.652500 5.422500 3.615000
463 1 12.652500 3.615000 5.422500
464 1 10.845000 5.422500 5.422500
465 1 10.845000 3.615000 7.230000
466 1 12.652500 5.422500 7.230000
467 1 12.652500 3.615000 9.037500
468 1 10.845000 5.422500 9.037500
469 1 10.845000 3.615000 10.845000
470 1 12.652500 5.422500 10.845000
471 1 12.652500 3.615000 12.652500
472 1 10.845000 5.422500 12.652500
473 1 10.845000 3.615000 14.460000
474 1 12.652500 5.422500 14.460000
475 1 12.652500 3.615000 16.267500
476 1 10.845000 5.422500 16.267500
477 1 10.845000 3.615000 18.075000
478 1 12.652500 5.422500 18.075000
479 1 12.652500 3.615000 19.882500
480 1 10.845000 5.422500 19.882500
481 1 10.845000 7.230000 0.000000
482 1 12.652500 9.037500 0.000000
483 1 12.652500 7.230000 1.807500
484 1 10.845000 9.037500 1.807500
485 1 10.845000 7.230000 3.615000
486 1 12.652500 9.037500 3.615000
487 1 12.652500 7.230000 5.422500
488 1 10.845000 9.037500 5.422500
489 1 10.845000 7.230000 7.230000
490 1 12.652500 9.037500 7.230000
491 1 12.652500 7.230000 9.037500
492 1 10.845000 9.037500 9.037500
493 1 10.845000 7.230000 10.845000
494 1 12.652500 9.037500 10.845000
495 1 12.652500 7.230000 12.652500
496 1 10.845000 9.037500 12.652500
497 1 10.845000 7.230000 14.460000
498 1 12.652500 9.037500 14.460000
499 1 12.652500 7.230000 16.267500
500 1 10.845000 9.037500 16.267500
501 1 10.845000 7.230000 18.075000
502 1 12.652500 9.037500 18.075000
503 1 12.652500 7.230000 19.882500
504 1 10.845000 9.037500 19.882500
505 1 10.845000 10.845000 0.000000
506 1 12.652500 12.652500 0.000000
507 1 12.652500 10.845000 1.807500
508 1 10.845000 12.652500 1.807500
509 1 10.845000 10.845000 3.615000
510 1 12.652500 12.652500 3.615000
511 1 12.652500 10.845000 5.422500
512 1 10.845000 12.652500 5.422500
513 1 10.845000 10.845000 7.230000
514 1 12.652500 12.652500 7.230000
515 1 12.652500 10.845000 9.037500
516 1 10.845000 12.652500 9.037500
517 1 10.845000 10.845000 10.845000
518 1 12.652500 12.652500 10.845000
519 1 12.652500 10.845000 12.652500
520 1 10.845000 12.652500 12.652500
521 1 10.845000 10.845000 14.460000
522 1 12.652500 12.652500 14.460000
523 1 12.652500 10.845000 16.267500
524 1 10.845000 12.652500 16.267500
525 1 10.845000 10.845000 18.075000
526 1 12.652500 12.652500 18.075000
527 1 12.652500 10.845000 19.882500
528 1 10.845000 12.652500 19.882500
529 1 10.845000 14.460000 0.000000
530 1 12.652500 16.267500 0.000000
531 1 12.652500 14.460000 1.807500
532 1 10.845000 16.267500 1.807500
533 1 10.845000 14.460000 3.615000
534 1 12.652500 16.267500 3.615000
535 1 12.652500 14.460000 5.422500
536 1 10.845000 16.267500 5.422500
537 1 10.845000 14.460000 7.230000
538 1 12.652500 16.267500 7.230000
539 1 12.652500 14.460000 9.037500
540 1 10.845000 16.267500 9.037500
541 1 10.845000 14.460000 10.845000
542 1 12.652500 16.267500 10.845000
543 1 12.652500 14.460000 12.652500
544 1 10.845000 16.267500 12.652500
545 1 10.845000 14.460000 14.460000
546 1 12.652500 16.267500 14.460000
547 1 12.652500 14.460000 16.267500
548 1 10.845000 16.267500 16.267500
549 1 10.845000 14.460000 18.075000
550 1 12.652500 16.267500 18.075000
551 1 12.652500 14.460000 19.882500
552 1 10.845000 16.267500 19.882500
553 1 10.845000 18.075000 0.000000
554 1 12.652500 19.882500 0.000000
555 1 12.652500 18.075000 1.807500
556 1 10.845000 19.882500 1.807500
557 1 10.845000 18.075000 3.615000
558 1 12.652500 19.882500 3.615000
559 1 12.652500 18.075000 5.422500
560 1 10.845000 19.882500 5.422500
561 1 10.845000 18.075000 7.230000
562 1 12.652500 19.882500 7.230000
563 1 12.652500 18.075000 9.037500
564 1 10.845000 19.882500 9.037500
565 1 10.845000 18.075000 10.845000
566 1 12.652500 19.882500 10.845000
567 1 12.652500 18.075000 12.652500
568 1 10.845000 19.882500 12.652500
569 1 10.845000 18.075000 14.460000
570 1 12.652500 19.882500 14.460000
571 1 12.652500 18.075000 16.267500
572 1 10.845000 19.882500 16.267500
573 1 10.845000 18.075000 18.075000
574 1 12.652500 19.882500 18.075000
575 1 12.652500 18.075000 19.882500
576 1 10.845000 19.882500 19.882500
577 1 14.460000 0.000000 0.000000
578 1 16.267500 1.807500 0.000000
579 1 16.267500 0.000000 1.807500
580 1 14.460000 1.807500 1.807500
581 1 14.460000 0.000000 3.615000
582 1 16.267500 1.807500 3.615000
583 1 16.267500 0.000000 5.422500
584 1 14.460000 1.807500 5.422500
585 1 14.460000 0.000000 7.230000
586 1 16.267500 1.807500 7.230000
587 1 16.267500 0.000000 9.037500
588 1 14.460000 1.807500 9.037500
589 1 14.460000 0.000000 10.845000
590 1 16.267500 1.807500 10.845000
591 1 16.267500 0.000000 12.652500
592 1 14.460000 1.807500 12.652500
593 1 14.460000 0.000000 14.460000
594 1 16.267500 1.807500 14.460000
595 1 16.267500 0.000000 16.267500
596 1 14.460000 1.807500 16.267500
597 1 14.460000 0.000000 18.075000
598 1 16.267500 1.807500 18.075000
599 1 16.267500 0.000000 19.882500
600 1 14.460000 1.807500 19.882500
601 1 14.460000 3.615000 0.000000
602 1 16.267500 5.422500 0.000000
603 1 16.267500 3.615000 1.807500
604 1 14.460000 5.422500 1.807500
605 1 14.460000 3.615000 3.615000
606 1 16.267500 5.422500 3.615000
607 1 16.267500 3.615000 5.422500
608 1 14.460000 5.422500 5.422500
609 1 14.460000 3.615000 7.230000
610 1 16.267500 5.422500 7.230000
611 1 16.267500 3.615000 9.037500
612 1 14.460000 5.422500 9.037500
613 1 14.460000 3.615000 10.845000
614 1 16.267500 5.422500 10.845000
615 1 16.267500 3.615000 12.652500
616 1 14.460000 5.422500 12.652500
617 1 14.460000 3.615000 14.460000
618 1 16.267500 5.422500 14.460000
619 1 16.267500 3.615000 16.267500
620 1 14.460000 5.422500 16.267500
621 1 14.460000 3.615000 18.075000
622 1 16.267500 5.422500 18.075000
623 1 16.267500 3.615000 19.882500
624 1 14.460000 5.422500 19.882500
625 1 14.460000 7.230000 0.000000
626 1 16.267500 9.037500 0.000000
627 1 16.267500 7.230000 1.807500
628 1 14.460000 9.037500 1.807500
629 1 14.460000 7.230000 3.615000
630 1 16.267500 9.037500 3.615000
631 1 16.267500 7.230000 5.422500
632 1 14.460000 9.037500 5.422500
633 1 14.460000 7.230000 7.230000
634 1 16.267500 9.037500 7.230000
635 1 16.267500 7.230000 9.037500
636 1 14.460000 9.037500 9.037500
637 1 14.460000 7.230000 10.845000
638 1 16.267500 9.037500 10.845000
639 1 16.267500 7.230000 12.652500
640 1 14.460000 9.037500 12.652500
641 1 14.460000 7.230000 14.460000
642 1 16.267500 9.037500 14.460000
643 1 16.267500 7.230000 16.267500
644 1 14.460000 9.037500 16.267500
645 1 14.460000 7.230000 18.075000
646 1 16.267500 9.037500 18.075000
647 1 16.267500 7.230000 19.882500
648 1 14.460000 9.037500 19.882500
649 1 14.460000 10.845000 0.000000
650 1 16.267500 12.652500 0.000000
651 1 16.267500 10.845000 1.807500
652 1 14.460000 12.652500 1.807500
653 1 14.460000 10.845000 3.615000
654 1 16.267500 12.652500 3.615000
655 1 16.267500 10.845000 5.422500
656 1 14.460000 12.652500 5.422500
657 1 14.460000 10.845000 7.230000
658 1 16.267500 12.652500 7.230000
659 1 16.267500 10.845000 9.037500
660 1 14.460000 12.652500 9.037500
661 1 14.460000 10.845000 10.845000
662 1 16.267500 12.652500 10.845000
663 1 16.267500 10.845000 12.652500
664 1 14.460000 12.652500 12.652500
665 1 14.460000 10.845000 14.460000
666 1 16.267500 12.652500 14.460000
667 1 16.267500 10.845000 16.267500
668 1 14.460000 12.652500 16.267500
669 1 14.460000 10.845000 18.075000
670 1 16.267500 12.652500 18.075000
671 1 16.267500 10.845000 19.882500
672 1 14.460000 12.652500 19.882500
673 1 14.460000 14.460000 0.000000
674 1 16.267500 16.267500 0.000000
675 1 16.267500 14.460000 1.807500
676 1 14.460000 16.267500 1.807500
677 1 14.460000 14.460000 3.615000
678 1 16.267500 16.267500 3.615000
679 1 16.267500 14.460000 5.422500
680 1 14.460000 16.267500 5.422500
681 1 14.460000 14.460000 7.230000
682 1 16.267500 16.267500 7.230000
683 1 16.267500 14.460000 9.037500
684 1 14.460000 16.267500 9.037500
685 1 14.460000 14.460000 10.845000
686 1 16.267500 16.267500 10.845000
687 1 16.267500 14.460000 12.652500
688 1 14.460000 16.267500 12.652500
689 1 14.460000 14.460000 14.460000
690 1 16.267500 16.267500 14.460000
691 1 16.267500 14.460000 16.267500
692 1 14.460000 16.267500 16.267500
693 1 14.460000 14.460000 18.075000
694 1 16.267500 16.267500 18.075000
695 1 16.267500 14.460000 19.882500
696 1 14.460000 16.267500 19.882500
697 1 14.460000 18.075000 0.000000
698 1 16.267500 19.882500 0.000000
699 1 16.267500 18.075000 1.807500
700 1 14.460000 19.882500 1.807500
701 1 14.460000 18.075000 3.615000
702 1 16.267500 19.882500 3.615000
703 1 16.267500 18.075000 5.422500
704 1 14.460000 19.882500 5.422500
705 1 14.460000 18.075000 7.230000
706 1 16.267500 19.882500 7.230000
707 1 16.267500 18.075000 9.037500
708 1 14.460000 19.882500 9.037500
709 1 14.460000 18.075000 10.845000
710 1 16.267500 19.882500 10.845000
711 1 16.267500 18.075000 12.652500
712 1 14.460000 19.882500 12.652500
713 1 14.460000 18.075000 14.460000
714 1 16.267500 19.882500 14.460000
715 1 16.267500 18.075000 16.267500
716 1 14.460000 19.882500 16.267500
717 1 14.460000 18.075000 18.075000
718 1 16.267500 19.882500 18.075000
719 1 16.267500 18.075000 19.882500
720 1 14.460000 19.882500 19.882500
721 1 18.075000 0.000000 0.000000
722 1 19.882500 1.807500 0.000000
723 1 19.882500 0.000000 1.807500
724 1 18.075000 1.807500 1.807500
725 1 18.075000 0.000000 3.615000
726 1 19.882500 1.807500 3.615000
727 1 19.882500 0.000000 5.422500
728 1 18.075000 1.807500 5.422500
729 1 18.075000 0.000000 7.230000
730 1 19.882500 1.807500 7.230000
731 1 19.882500 0.000000 9.037500
732 1 18.075000 1.807500 9.037500
733 1 18.075000 0.000000 10.845000
734 1 19.882500 1.807500 10.845000
735 1 19.882500 0.000000 12.652500
736 1 18.075000 1.807500 12.652500
737 1 18.075000 0.000000 14.460000
738 1 19.882500 1.807500 14.460000
739 1 19.882500 0.000000 16.267500
740 1 18.075000 1.807500 16.267500
741 1 18.075000 0.000000 18.075000
742 1 19.882500 1.807500 18.075000
743 1 19.882500 0.000000 19.882500
744 1 18.075000 1.807500 19.882500
745 1 18.075000 3.615000 0.000000
746 1 19.882500 5.422500 0.000000
747 1 19.882500 3.615000 1.807500
748 1 18.075000 5.422500 1.807500
749 1 18.075000 3.615000 3.615000
750 1 19.882500 5.422500 3.615000
751 1 19.882500 3.615000 5.422500
752 1 18.075000 5.422500 5.422500
753 1 18.075000 3.615000 7.230000
754 1 19.882500 5.422500 7.230000
755 1 19.882500 3.615000 9.037500
756 1 18.075000 5.422500 9.037500
757 1 18.075000 3.615000 10.845000
758 1 19.882500 5.422500 10.845000
759 1 19.882500 3.615000 12.652500
760 1 18.075000 5.422500 12.652500
761 1 18.075000 3.615000 14.460000
762 1 19.882500 5.422500 14.460000
763 1 19.882500 3.615000 16.267500
764 1 18.075000 5.422500 16.267500
765 1 18.075000 3.615000 18.075000
766 1 19.882500 5.422500 18.075000
767 1 19.882500 3.615000 19.882500
768 1 18.075000 5.422500 19.882500
769 1 18.075000 7.230000 0.000000
770 1 19.882500 9.037500 0.000000
771 1 19.882500 7.230000 1.807500
772 1 18.075000 9.037500 1.807500
773 1 18.075000 7.230000 3.615000
774 1 19.882500 9.037500 3.615000
775 1 19.882500 7.230000 5.422500
776 1 18.075000 9.037500 5.422500
777 1 18.075000 7.230000 7.230000
778 1 19.882500 9.037500 7.230000
779 1 19.882500 7.230000 9.037500
780 1 18.075000 9.037500 9.037500
781 1 18.075000 7.230000 10.845000
782 1 19.882500 9.037500 10.845000
783 1 19.882500 7.230000 12.652500
784 1 18.075000 9.037500 12.652500
785 1 18.075000 7.230000 14.460000
786 1 19.882500 9.037500 14.460000
787 1 19.882500 7.230000 16.267500
788 1 18.075000 9.037500 16.267500
789 1 18.075000 7.230000 18.075000
790 1 19.882500 9.037500 18.075000
791 1 19.882500 7.230000 19.882500
792 1 18.075000 9.037500 19.882500
793 1 18.075000 10.845000 0.000000
794 1 19.882500 12.652500 0.000000
795 1 19.882500 10.845000 1.807500
796 1 18.075000 12.652500 1.807500
797 1 18.075000 10.845000 3.615000
798 1 19.882500 12.652500 3.615000
799 1 19.882500 10.845000 5.422500
800 1 18.075000 12.652500 5.422500
801 1 18.075000 10.845000 7.230000
802 1 19.882500 12.652500 7.230000
803 1 19.882500 10.845000 9.037500
804 1 18.075000 12.652500 9.037500
805 1 18.075000 10.845000 10.845000
806 1 19.882500 12.652500 10.845000
807 1 19.882500 10.845000 12.652500
808 1 18.075000 12.652500 12.652500
809 1 18.075000 10.845000 14.460000
810 1 19.882500 12.652500 14.460000
811 1 19.882500 10.845000 16.267500
812 1 18.075000 12.652500 16.267500
813 1 18.075000 10.845000 18.075000
814 1 19.882500 12.652500 18.075000
815 1 19.882500 10.845000 19.882500
816 1 18.075000 12.652500 19.882500
817 1 18.075000 14.460000 0.000000
818 1 19.882500 16.267500 0.000000
819 1 19.882500 14.460000 1.807500
820 1 18.075000 16.267500 1.807500
821 1 18.075000 14.460000 3.615000
822 1 19.882500 16.267500 3.615000
823 1 19.882500 14.460000 5.422500
824 1 18.075000 16.267500 5.422500
825 1 18.075000 14.460000 7.230000
826 1 19.882500 16.267500 7.230000
827 1 19.882500 14.460000 9.037500
828 1 18.075000 16.267500 9.037500
829 1 18.075000 14.460000 10.845000
830 1 19.882500 16.267500 10.845000
831 1 19.882500 14.460000 12.652500
832 1 18.075000 16.267500 12.652500
833 1 18.075000 14.460000 14.460000
834 1 19.882500 16.267500 14.460000
835 1 19.882500 14.460000 16.267500
836 1 18.075000 16.267500 16.267500
837 1 18.075000 14.460000 18.075000
838 1 19.882500 16.267500 18.075000
839 1 19.882500 14.460000 19.882500
840 1 18.075000 16.267500 19.882500
841 1 18.075000 18.075000 0.000000
842 1 19.882500 19.882500 0.000000
843 1 19.882500 18.075000 1.807500
844 1 18.075000 19.882500 1.807500
845 1 18.075000 18.075000 3.615000
846 1 19.882500 19.882500 3.615000
847 1 19.882500 18.075000 5.422500
848 1 18.075000 19.882500 5.422500
849 1 18.075000 18.075000 7.230000
850 1 19.882500 19.882500 7.230000
851 1 19.882500 18.075000 9.037500
852 1 18.075000 19.882500 9.037500
853 1 18.075000 18.075000 10.845000
854 1 19.882500 19.882500 10.845000
855 1 19.882500 18.075000 12.652500
856 1 18.075000 19.882500 12.652500
857 1 18.075000 18.075000 14.460000
858 1 19.882500 19.882500 14.460000
859 1 19.882500 18.075000 16.267500
860 1 18.075000 19.882500 16.267500
861 1 18.075000 18.075000 18.075000
862 1 19.882500 19.882500 18.075000
863 1 19.882500 18.075000 19.882500
864 1 18.075000 19.882500 19.882500
