LAMMPS Mg HCP crystal

128 atoms
1 atom types

-12.84 12.84 xlo xhi
0 22.23953236918438 ylo yhi
0 20.85216 zlo zhi

Masses

1 24.305

Atoms

1 1 0.000000 0.000000 0.000000
2 1 0.000000 1.853294 2.606520
3 1 0.000000 0.000000 5.213040
4 1 0.000000 1.853294 7.819560
5 1 0.000000 0.000000 10.426080
6 1 0.000000 1.853294 13.032600
7 1 0.000000 0.000000 15.639120
8 1 0.000000 1.853294 18.245640
9 1 -1.605000 2.779942 0.000000
10 1 -1.605000 4.633236 2.606520
11 1 -1.605000 2.779942 5.213040
12 1 -1.605000 4.633236 7.819560
13 1 -1.605000 2.779942 10.426080
14 1 -1.605000 4.633236 13.032600
15 1 -1.605000 2.779942 15.639120
16 1 -1.605000 4.633236 18.245640
17 1 -3.210000 5.559883 0.000000
18 1 -3.210000 7.413177 2.606520
19 1 -3.210000 5.559883 5.213040
20 1 -3.210000 7.413177 7.819560
21 1 -3.210000 5.559883 10.426080
22 1 -3.210000 7.413177 13.032600
23 1 -3.210000 5.559883 15.639120
24 1 -3.210000 7.413177 18.245640
25 1 -4.815000 8.339825 0.000000
26 1 -4.815000 10.193119 2.606520
27 1 -4.815000 8.339825 5.213040
28 1 -4.815000 10.193119 7.819560
29 1 -4.815000 8.339825 10.426080
30 1 -4.815000 10.193119 13.032600
31 1 -4.815000 8.339825 15.639120
32 1 -4.815000 10.193119 18.245640
33 1 3.210000 0.000000 0.000000
34 1 3.210000 1.853294 2.606520
35 1 3.210000 0.000000 5.213040
36 1 3.210000 1.853294 7.819560
37 1 3.210000 0.000000 10.426080
38 1 3.210000 1.853294 13.032600
39 1 3.210000 0.000000 15.639120
40 1 3.210000 1.853294 18.245640
41 1 1.605000 2.779942 0.000000
42 1 1.605000 4.633236 2.606520
43 1 1.605000 2.779942 5.213040
44 1 1.605000 4.633236 7.819560
45 1 1.605000 2.779942 10.426080
46 1 1.605000 4.633236 13.032600
47 1 1.605000 2.779942 15.639120
48 1 1.605000 4.633236 18.245640
49 1 0.000000 5.559883 0.000000
50 1 0.000000 7.413177 2.606520
51 1 0.000000 5.559883 5.213040
52 1 0.000000 7.413177 7.819560
53 1 0.000000 5.559883 10.426080
54 1 0.000000 7.413177 13.032600
55 1 0.000000 5.559883 15.639120
56 1 0.000000 7.413177 18.245640
57 1 -1.605000 8.339825 0.000000
58 1 -1.605000 10.193119 2.606520
59 1 -1.605000 8.339825 5.213040
60 1 -1.605000 10.193119 7.819560
61 1 -1.605000 8.339825 10.426080
62 1 -1.605000 10.193119 13.032600
63 1 -1.605000 8.339825 15.639120
64 1 -1.605000 10.193119 18.245640
65 1 6.420000 0.000000 0.000000
66 1 6.420000 1.853294 2.606520
67 1 6.420000 0.000000 5.213040
68 1 6.420000 1.853294 7.819560
69 1 6.420000 0.000000 10.426080
70 1 6.420000 1.853294 13.032600
71 1 6.420000 0.000000 15.639120
72 1 6.420000 1.853294 18.245640
73 1 4.815000 2.779942 0.000000
74 1 4.815000 4.633236 2.606520
75 1 4.815000 2.779942 5.213040
76 1 4.815000 4.633236 7.819560
77 1 4.815000 2.779942 10.426080
78 1 4.815000 4.633236 13.032600
79 1 4.815000 2.779942 15.639120
80 1 4.815000 4.633236 18.245640
81 1 3.210000 5.559883 0.000000
82 1 3.210000 7.413177 2.606520
83 1 3.210000 5.559883 5.213040
84 1 3.210000 7.413177 7.819560
85 1 3.210000 5.559883 10.426080
86 1 3.210000 7.413177 13.032600
87 1 3.210000 5.559883 15.639120
88 1 3.210000 7.413177 18.245640
89 1 1.605000 8.339825 0.000000
90 1 1.605000 10.193119 2.606520
91 1 1.605000 8.339825 5.213040
92 1 1.605000 10.193119 7.819560
93 1 1.605000 8.339825 10.426080
94 1 1.605000 10.193119 13.032600
95 1 1.605000 8.339825 15.639120
96 1 1.605000 10.193119 18.245640
97 1 9.630000 0.000000 0.000000
98 1 9.630000 1.853294 2.606520
99 1 9.630000 0.000000 5.213040
100 1 9.630000 1.853294 7.819560
101 1 9.630000 0.000000 10.426080
102 1 9.630000 1.853294 13.032600
103 1 9.630000 0.000000 15.639120
104 1 9.630000 1.853294 18.245640
105 1 8.025000 2.779942 0.000000
106 1 8.025000 4.633236 2.606520
107 1 8.025000 2.779942 5.213040
108 1 8.025000 4.633236 7.819560
109 1 8.025000 2.779942 10.426080
110 1 8.025000 4.633236 13.032600
111 1 8.025000 2.779942 15.639120
112 1 8.025000 4.633236 18.245640
113 1 6.420000 5.559883 0.000000
114 1 6.420000 7.413177 2.606520
115 1 6.420000 5.559883 5.213040
116 1 6.420000 7.413177 7.819560
117 1 6.420000 5.559883 10.426080
118 1 6.420000 7.413177 13.032600
119 1 6.420000 5.559883 15.639120
120 1 6.420000 7.413177 18.245640
121 1 4.815000 8.339825 0.000000
122 1 4.815000 10.193119 2.606520
123 1 4.815000 8.339825 5.213040
124 1 4.815000 10.193119 7.819560
125 1 4.815000 8.339825 10.426080
126 1 4.815000 10.193119 13.032600
127 1 4.815000 8.339825 15.639120
128 1 4.815000 10.193119 18.245640
