LAMMPS SiC Zincblende crystal

512 atoms
2 atom types

0.0 17.44 xlo xhi
0.0 17.44 ylo yhi
0.0 17.44 zlo zhi

Masses

1 28.0855
2 12.0107

Atoms

1 1 0.000000 0.000000 0.000000
2 2 1.090000 1.090000 1.090000
3 1 2.180000 2.180000 0.000000
4 2 3.270000 3.270000 1.090000
5 1 2.180000 0.000000 2.180000
6 2 3.270000 1.090000 3.270000
7 1 0.000000 2.180000 2.180000
8 2 1.090000 3.270000 3.270000
9 1 0.000000 0.000000 4.360000
10 2 1.090000 1.090000 5.450000
11 1 2.180000 2.180000 4.360000
12 2 3.270000 3.270000 5.450000
13 1 2.180000 0.000000 6.540000
14 2 3.270000 1.090000 7.630000
15 1 0.000000 2.180000 6.540000
16 2 1.090000 3.270000 7.630000
17 1 0.000000 0.000000 8.720000
18 2 1.090000 1.090000 9.810000
19 1 2.180000 2.180000 8.720000
20 2 3.270000 3.270000 9.810000
21 1 2.180000 0.000000 10.900000
22 2 3.270000 1.090000 11.990000
23 1 0.000000 2.180000 10.900000
24 2 1.090000 3.270000 11.990000
25 1 0.000000 0.000000 13.080000
26 2 1.090000 1.090000 14.170000
27 1 2.180000 2.180000 13.080000
28 2 3.270000 3.270000 14.170000
29 1 2.180000 0.000000 15.260000
30 2 3.270000 1.090000 16.350000
31 1 0.000000 2.180000 15.260000
32 2 1.090000 3.270000 16.350000
33 1 0.000000 4.360000 0.000000
34 2 1.090000 5.450000 1.090000
35 1 2.180000 6.540000 0.000000
36 2 3.270000 7.630000 1.090000
37 1 2.180000 4.360000 2.180000
38 2 3.270000 5.450000 3.270000
39 1 0.000000 6.540000 2.180000
40 2 1.090000 7.630000 3.270000
41 1 0.000000 4.360000 4.360000
42 2 1.090000 5.450000 5.450000
43 1 2.180000 6.540000 4.360000
44 2 3.270000 7.630000 5.450000
45 1 2.180000 4.360000 6.540000
46 2 3.270000 5.450000 7.630000
47 1 0.000000 6.540000 6.540000
48 2 1.090000 7.630000 7.630000
49 1 0.000000 4.360000 8.720000
50 2 1.090000 5.450000 9.810000
51 1 2.180000 6.540000 8.720000
52 2 3.270000 7.630000 9.810000
53 1 2.180000 4.360000 10.900000
54 2 3.270000 5.450000 11.990000
55 1 0.000000 6.540000 10.900000
56 2 1.090000 7.630000 11.990000
57 1 0.000000 4.360000 13.080000
58 2 1.090000 5.450000 14.170000
59 1 2.180000 6.540000 13.080000
60 2 3.270000 7.630000 14.170000
61 1 2.180000 4.360000 15.260000
62 2 3.270000 5.450000 16.350000
63 1 0.000000 6.540000 15.260000
64 2 1.090000 7.630000 16.350000
65 1 0.000000 8.720000 0.000000
66 2 1.090000 9.810000 1.090000
67 1 2.180000 10.900000 0.000000
68 2 3.270000 11.990000 1.090000
69 1 2.180000 8.720000 2.180000
70 2 3.270000 9.810000 3.270000
71 1 0.000000 10.900000 2.180000
72 2 1.090000 11.990000 3.270000
73 1 0.000000 8.720000 4.360000
74 2 1.090000 9.810000 5.450000
75 1 2.180000 10.900000 4.360000
76 2 3.270000 11.990000 5.450000
77 1 2.180000 8.720000 6.540000
78 2 3.270000 9.810000 7.630000
79 1 0.000000 10.900000 6.540000
80 2 1.090000 11.990000 7.630000
81 1 0.000000 8.720000 8.720000
82 2 1.090000 9.810000 9.810000
83 1 2.180000 10.900000 8.720000
84 2 3.270000 11.990000 9.810000
85 1 2.180000 8.720000 10.900000
86 2 3.270000 9.810000 11.990000
87 1 0.000000 10.900000 10.900000
88 2 1.090000 11.990000 11.990000
89 1 0.000000 8.720000 13.080000
90 2 1.090000 9.810000 14.170000
91 1 2.180000 10.900000 13.080000
92 2 3.270000 11.990000 14.170000
93 1 2.180000 8.720000 15.260000
94 2 3.270000 9.810000 16.350000
95 1 0.000000 10.900000 15.260000
96 2 1.090000 11.990000 16.350000
97 1 0.000000 13.080000 0.000000
98 2 1.090000 14.170000 1.090000
99 1 2.180000 15.260000 0.000000
100 2 3.270000 16.350000 1.090000
101 1 2.180000 13.080000 2.180000
102 2 3.270000 14.170000 3.270000
103 1 0.000000 15.260000 2.180000
104 2 1.090000 16.350000 3.270000
105 1 0.000000 13.080000 4.360000
106 2 1.090000 14.170000 5.450000
107 1 2.180000 15.260000 4.360000
108 2 3.270000 16.350000 5.450000
109 1 2.180000 13.080000 6.540000
110 2 3.270000 14.170000 7.630000
111 1 0.000000 15.260000 6.540000
112 2 1.090000 16.350000 7.630000
113 1 0.000000 13.080000 8.720000
114 2 1.090000 14.170000 9.810000
115 1 2.180000 15.260000 8.720000
116 2 3.270000 16.350000 9.810000
117 1 2.180000 13.080000 10.900000
118 2 3.270000 14.170000 11.990000
119 1 0.000000 15.260000 10.900000
120 2 1.090000 16.350000 11.990000
121 1 0.000000 13.080000 13.080000
122 2 1.090000 14.170000 14.170000
123 1 2.180000 15.260000 13.080000
124 2 3.270000 16.350000 14.170000
125 1 2.180000 13.080000 15.260000
126 2 3.270000 14.170000 16.350000
127 1 0.000000 15.260000 15.260000
128 2 1.090000 16.350000 16.350000
129 1 4.360000 0.000000 0.000000
130 2 5.450000 1.090000 1.090000
131 1 6.540000 2.180000 0.000000
132 2 7.630000 3.270000 1.090000
133 1 6.540000 0.000000 2.180000
134 2 7.630000 1.090000 3.270000
135 1 4.360000 2.180000 2.180000
136 2 5.450000 3.270000 3.270000
137 1 4.360000 0.000000 4.360000
138 2 5.450000 1.090000 5.450000
139 1 6.540000 2.180000 4.360000
140 2 7.630000 3.270000 5.450000
141 1 6.540000 0.000000 6.540000
142 2 7.630000 1.090000 7.630000
143 1 4.360000 2.180000 6.540000
144 2 5.450000 3.270000 7.630000
145 1 4.360000 0.000000 8.720000
146 2 5.450000 1.090000 9.810000
147 1 6.540000 2.180000 8.720000
148 2 7.630000 3.270000 9.810000
149 1 6.540000 0.000000 10.900000
150 2 7.630000 1.090000 11.990000
151 1 4.360000 2.180000 10.900000
152 2 5.450000 3.270000 11.990000
153 1 4.360000 0.000000 13.080000
154 2 5.450000 1.090000 14.170000
155 1 6.540000 2.180000 13.080000
156 2 7.630000 3.270000 14.170000
157 1 6.540000 0.000000 15.260000
158 2 7.630000 1.090000 16.350000
159 1 4.360000 2.180000 15.260000
160 2 5.450000 3.270000 16.350000
161 1 4.360000 4.360000 0.000000
162 2 5.450000 5.450000 1.090000
163 1 6.540000 6.540000 0.000000
164 2 7.630000 7.630000 1.090000
165 1 6.540000 4.360000 2.180000
166 2 7.630000 5.450000 3.270000
167 1 4.360000 6.540000 2.180000
168 2 5.450000 7.630000 3.270000
169 1 4.360000 4.360000 4.360000
170 2 5.450000 5.450000 5.450000
171 1 6.540000 6.540000 4.360000
172 2 7.630000 7.630000 5.450000
173 1 6.540000 4.360000 6.540000
174 2 7.630000 5.450000 7.630000
175 1 4.360000 6.540000 6.540000
176 2 5.450000 7.630000 7.630000
177 1 4.360000 4.360000 8.720000
178 2 5.450000 5.450000 9.810000
179 1 6.540000 6.540000 8.720000
180 2 7.630000 7.630000 9.810000
181 1 6.540000 4.360000 10.900000
182 2 7.630000 5.450000 11.990000
183 1 4.360000 6.540000 10.900000
184 2 5.450000 7.630000 11.990000
185 1 4.360000 4.360000 13.080000
186 2 5.450000 5.450000 14.170000
187 1 6.540000 6.540000 13.080000
188 2 7.630000 7.630000 14.170000
189 1 6.540000 4.360000 15.260000
190 2 7.630000 5.450000 16.350000
191 1 4.360000 6.540000 15.260000
192 2 5.450000 7.630000 16.350000
193 1 4.360000 8.720000 0.000000
194 2 5.450000 9.810000 1.090000
195 1 6.540000 10.900000 0.000000
196 2 7.630000 11.990000 1.090000
197 1 6.540000 8.720000 2.180000
198 2 7.630000 9.810000 3.270000
199 1 4.360000 10.900000 2.180000
200 2 5.450000 11.990000 3.270000
201 1 4.360000 8.720000 4.360000
202 2 5.450000 9.810000 5.450000
203 1 6.540000 10.900000 4.360000
204 2 7.630000 11.990000 5.450000
205 1 6.540000 8.720000 6.540000
206 2 7.630000 9.810000 7.630000
207 1 4.360000 10.900000 6.540000
208 2 5.450000 11.990000 7.630000
209 1 4.360000 8.720000 8.720000
210 2 5.450000 9.810000 9.810000
211 1 6.540000 10.900000 8.720000
212 2 7.630000 11.990000 9.810000
213 1 6.540000 8.720000 10.900000
214 2 7.630000 9.810000 11.990000
215 1 4.360000 10.900000 10.900000
216 2 5.450000 11.990000 11.990000
217 1 4.360000 8.720000 13.080000
218 2 5.450000 9.810000 14.170000
219 1 6.540000 10.900000 13.080000
220 2 7.630000 11.990000 14.170000
221 1 6.540000 8.720000 15.260000
222 2 7.630000 9.810000 16.350000
223 1 4.360000 10.900000 15.260000
224 2 5.450000 11.990000 16.350000
225 1 4.360000 13.080000 0.000000
226 2 5.450000 14.170000 1.090000
227 1 6.540000 15.260000 0.000000
228 2 7.630000 16.350000 1.090000
229 1 6.540000 13.080000 2.180000
230 2 7.630000 14.170000 3.270000
231 1 4.360000 15.260000 2.180000
232 2 5.450000 16.350000 3.270000
233 1 4.360000 13.080000 4.360000
234 2 5.450000 14.170000 5.450000
235 1 6.540000 15.260000 4.360000
236 2 7.630000 16.350000 5.450000
237 1 6.540000 13.080000 6.540000
238 2 7.630000 14.170000 7.630000
239 1 4.360000 15.260000 6.540000
240 2 5.450000 16.350000 7.630000
241 1 4.360000 13.080000 8.720000
242 2 5.450000 14.170000 9.810000
243 1 6.540000 15.260000 8.720000
244 2 7.630000 16.350000 9.810000
245 1 6.540000 13.080000 10.900000
246 2 7.630000 14.170000 11.990000
247 1 4.360000 15.260000 10.900000
248 2 5.450000 16.350000 11.990000
249 1 4.360000 13.080000 13.080000
250 2 5.450000 14.170000 14.170000
251 1 6.540000 15.260000 13.080000
252 2 7.630000 16.350000 14.170000
253 1 6.540000 13.080000 15.260000
254 2 7.630000 14.170000 16.350000
255 1 4.360000 15.260000 15.260000
256 2 5.450000 16.350000 16.350000
257 1 8.720000 0.000000 0.000000
258 2 9.810000 1.090000 1.090000
259 1 10.900000 2.180000 0.000000
260 2 11.990000 3.270000 1.090000
261 1 10.900000 0.000000 2.180000
262 2 11.990000 1.090000 3.270000
263 1 8.720000 2.180000 2.180000
264 2 9.810000 3.270000 3.270000
265 1 8.720000 0.000000 4.360000
266 2 9.810000 1.090000 5.450000
267 1 10.900000 2.180000 4.360000
268 2 11.990000 3.270000 5.450000
269 1 10.900000 0.000000 6.540000
270 2 11.990000 1.090000 7.630000
271 1 8.720000 2.180000 6.540000
272 2 9.810000 3.270000 7.630000
273 1 8.720000 0.000000 8.720000
274 2 9.810000 1.090000 9.810000
275 1 10.900000 2.180000 8.720000
276 2 11.990000 3.270000 9.810000
277 1 10.900000 0.000000 10.900000
278 2 11.990000 1.090000 11.990000
279 1 8.720000 2.180000 10.900000
280 2 9.810000 3.270000 11.990000
281 1 8.720000 0.000000 13.080000
282 2 9.810000 1.090000 14.170000
283 1 10.900000 2.180000 13.080000
284 2 11.990000 3.270000 14.170000
285 1 10.900000 0.000000 15.260000
286 2 11.990000 1.090000 16.350000
287 1 8.720000 2.180000 15.260000
288 2 9.810000 3.270000 16.350000
289 1 8.720000 4.360000 0.000000
290 2 9.810000 5.450000 1.090000
291 1 10.900000 6.540000 0.000000
292 2 11.990000 7.630000 1.090000
293 1 10.900000 4.360000 2.180000
294 2 11.990000 5.450000 3.270000
295 1 8.720000 6.540000 2.180000
296 2 9.810000 7.630000 3.270000
297 1 8.720000 4.360000 4.360000
298 2 9.810000 5.450000 5.450000
299 1 10.900000 6.540000 4.360000
300 2 11.990000 7.630000 5.450000
301 1 10.900000 4.360000 6.540000
302 2 11.990000 5.450000 7.630000
303 1 8.720000 6.540000 6.540000
304 2 9.810000 7.630000 7.630000
305 1 8.720000 4.360000 8.720000
306 2 9.810000 5.450000 9.810000
307 1 10.900000 6.540000 8.720000
308 2 11.990000 7.630000 9.810000
309 1 10.900000 4.360000 10.900000
310 2 11.990000 5.450000 11.990000
311 1 8.720000 6.540000 10.900000
312 2 9.810000 7.630000 11.990000
313 1 8.720000 4.360000 13.080000
314 2 9.810000 5.450000 14.170000
315 1 10.900000 6.540000 13.080000
316 2 11.990000 7.630000 14.170000
317 1 10.900000 4.360000 15.260000
318 2 11.990000 5.450000 16.350000
319 1 8.720000 6.540000 15.260000
320 2 9.810000 7.630000 16.350000
321 1 8.720000 8.720000 0.000000
322 2 9.810000 9.810000 1.090000
323 1 10.900000 10.900000 0.000000
324 2 11.990000 11.990000 1.090000
325 1 10.900000 8.720000 2.180000
326 2 11.990000 9.810000 3.270000
327 1 8.720000 10.900000 2.180000
328 2 9.810000 11.990000 3.270000
329 1 8.720000 8.720000 4.360000
330 2 9.810000 9.810000 5.450000
331 1 10.900000 10.900000 4.360000
332 2 11.990000 11.990000 5.450000
333 1 10.900000 8.720000 6.540000
334 2 11.990000 9.810000 7.630000
335 1 8.720000 10.900000 6.540000
336 2 9.810000 11.990000 7.630000
337 1 8.720000 8.720000 8.720000
338 2 9.810000 9.810000 9.810000
339 1 10.900000 10.900000 8.720000
340 2 11.990000 11.990000 9.810000
341 1 10.900000 8.720000 10.900000
342 2 11.990000 9.810000 11.990000
343 1 8.720000 10.900000 10.900000
344 2 9.810000 11.990000 11.990000
345 1 8.720000 8.720000 13.080000
346 2 9.810000 9.810000 14.170000
347 1 10.900000 10.900000 13.080000
348 2 11.990000 11.990000 14.170000
349 1 10.900000 8.720000 15.260000
350 2 11.990000 9.810000 16.350000
351 1 8.720000 10.900000 15.260000
352 2 9.810000 11.990000 16.350000
353 1 8.720000 13.080000 0.000000
354 2 9.810000 14.170000 1.090000
355 1 10.900000 15.260000 0.000000
356 2 11.990000 16.350000 1.090000
357 1 10.900000 13.080000 2.180000
358 2 11.990000 14.170000 3.270000
359 1 8.720000 15.260000 2.180000
360 2 9.810000 16.350000 3.270000
361 1 8.720000 13.080000 4.360000
362 2 9.810000 14.170000 5.450000
363 1 10.900000 15.260000 4.360000
364 2 11.990000 16.350000 5.450000
365 1 10.900000 13.080000 6.540000
366 2 11.990000 14.170000 7.630000
367 1 8.720000 15.260000 6.540000
368 2 9.810000 16.350000 7.630000
369 1 8.720000 13.080000 8.720000
370 2 9.810000 14.170000 9.810000
371 1 10.900000 15.260000 8.720000
372 2 11.990000 16.350000 9.810000
373 1 10.900000 13.080000 10.900000
374 2 11.990000 14.170000 11.990000
375 1 8.720000 15.260000 10.900000
376 2 9.810000 16.350000 11.990000
377 1 8.720000 13.080000 13.080000
378 2 9.810000 14.170000 14.170000
379 1 10.900000 15.260000 13.080000
380 2 11.990000 16.350000 14.170000
381 1 10.900000 13.080000 15.260000
382 2 11.990000 14.170000 16.350000
383 1 8.720000 15.260000 15.260000
384 2 9.810000 16.350000 16.350000
385 1 13.080000 0.000000 0.000000
386 2 14.170000 1.090000 1.090000
387 1 15.260000 2.180000 0.000000
388 2 16.350000 3.270000 1.090000
389 1 15.260000 0.000000 2.180000
390 2 16.350000 1.090000 3.270000
391 1 13.080000 2.180000 2.180000
392 2 14.170000 3.270000 3.270000
393 1 13.080000 0.000000 4.360000
394 2 14.170000 1.090000 5.450000
395 1 15.260000 2.180000 4.360000
396 2 16.350000 3.270000 5.450000
397 1 15.260000 0.000000 6.540000
398 2 16.350000 1.090000 7.630000
399 1 13.080000 2.180000 6.540000
400 2 14.170000 3.270000 7.630000
401 1 13.080000 0.000000 8.720000
402 2 14.170000 1.090000 9.810000
403 1 15.260000 2.180000 8.720000
404 2 16.350000 3.270000 9.810000
405 1 15.260000 0.000000 10.900000
406 2 16.350000 1.090000 11.990000
407 1 13.080000 2.180000 10.900000
408 2 14.170000 3.270000 11.990000
409 1 13.080000 0.000000 13.080000
410 2 14.170000 1.090000 14.170000
411 1 15.260000 2.180000 13.080000
412 2 16.350000 3.270000 14.170000
413 1 15.260000 0.000000 15.260000
414 2 16.350000 1.090000 16.350000
415 1 13.080000 2.180000 15.260000
416 2 14.170000 3.270000 16.350000
417 1 13.080000 4.360000 0.000000
418 2 14.170000 5.450000 1.090000
419 1 15.260000 6.540000 0.000000
420 2 16.350000 7.630000 1.090000
421 1 15.260000 4.360000 2.180000
422 2 16.350000 5.450000 3.270000
423 1 13.080000 6.540000 2.180000
424 2 14.170000 7.630000 3.270000
425 1 13.080000 4.360000 4.360000
426 2 14.170000 5.450000 5.450000
427 1 15.260000 6.540000 4.360000
428 2 16.350000 7.630000 5.450000
429 1 15.260000 4.360000 6.540000
430 2 16.350000 5.450000 7.630000
431 1 13.080000 6.540000 6.540000
432 2 14.170000 7.630000 7.630000
433 1 13.080000 4.360000 8.720000
434 2 14.170000 5.450000 9.810000
435 1 15.260000 6.540000 8.720000
436 2 16.350000 7.630000 9.810000
437 1 15.260000 4.360000 10.900000
438 2 16.350000 5.450000 11.990000
439 1 13.080000 6.540000 10.900000
440 2 14.170000 7.630000 11.990000
441 1 13.080000 4.360000 13.080000
442 2 14.170000 5.450000 14.170000
443 1 15.260000 6.540000 13.080000
444 2 16.350000 7.630000 14.170000
445 1 15.260000 4.360000 15.260000
446 2 16.350000 5.450000 16.350000
447 1 13.080000 6.540000 15.260000
448 2 14.170000 7.630000 16.350000
449 1 13.080000 8.720000 0.000000
450 2 14.170000 9.810000 1.090000
451 1 15.260000 10.900000 0.000000
452 2 16.350000 11.990000 1.090000
453 1 15.260000 8.720000 2.180000
454 2 16.350000 9.810000 3.270000
455 1 13.080000 10.900000 2.180000
456 2 14.170000 11.990000 3.270000
457 1 13.080000 8.720000 4.360000
458 2 14.170000 9.810000 5.450000
459 1 15.260000 10.900000 4.360000
460 2 16.350000 11.990000 5.450000
461 1 15.260000 8.720000 6.540000
462 2 16.350000 9.810000 7.630000
463 1 13.080000 10.900000 6.540000
464 2 14.170000 11.990000 7.630000
465 1 13.080000 8.720000 8.720000
466 2 14.170000 9.810000 9.810000
467 1 15.260000 10.900000 8.720000
468 2 16.350000 11.990000 9.810000
469 1 15.260000 8.720000 10.900000
470 2 16.350000 9.810000 11.990000
471 1 13.080000 10.900000 10.900000
472 2 14.170000 11.990000 11.990000
473 1 13.080000 8.720000 13.080000
474 2 14.170000 9.810000 14.170000
475 1 15.260000 10.900000 13.080000
476 2 16.350000 11.990000 14.170000
477 1 15.260000 8.720000 15.260000
478 2 16.350000 9.810000 16.350000
479 1 13.080000 10.900000 15.260000
480 2 14.170000 11.990000 16.350000
481 1 13.080000 13.080000 0.000000
482 2 14.170000 14.170000 1.090000
483 1 15.260000 15.260000 0.000000
484 2 16.350000 16.350000 1.090000
485 1 15.260000 13.080000 2.180000
486 2 16.350000 14.170000 3.270000
487 1 13.080000 15.260000 2.180000
488 2 14.170000 16.350000 3.270000
489 1 13.080000 13.080000 4.360000
490 2 14.170000 14.170000 5.450000
491 1 15.260000 15.260000 4.360000
492 2 16.350000 16.350000 5.450000
493 1 15.260000 13.080000 6.540000
494 2 16.350000 14.170000 7.630000
495 1 13.080000 15.260000 6.540000
496 2 14.170000 16.350000 7.630000
497 1 13.080000 13.080000 8.720000
498 2 14.170000 14.170000 9.810000
499 1 15.260000 15.260000 8.720000
500 2 16.350000 16.350000 9.810000
501 1 15.260000 13.080000 10.900000
502 2 16.350000 14.170000 11.990000
503 1 13.080000 15.260000 10.900000
504 2 14.170000 16.350000 11.990000
505 1 13.080000 13.080000 13.080000
506 2 14.170000 14.170000 14.170000
507 1 15.260000 15.260000 13.080000
508 2 16.350000 16.350000 14.170000
509 1 15.260000 13.080000 15.260000
510 2 16.350000 14.170000 16.350000
511 1 13.080000 15.260000 15.260000
512 2 14.170000 16.350000 16.350000
