LAMMPS Ti HCP crystal

128 atoms
2 atom types

-11.800000 11.800000 xlo xhi
0.000000 20.438200 ylo yhi
0.000000 18.726600 zlo zhi

Masses

1 10.811
2 47.867

Atoms

1 2 0.000000 0.000000 0.000000
2 2 0.000000 1.703183 2.340825
3 2 0.000000 0.000000 4.681650
4 2 0.000000 1.703183 7.022475
5 2 0.000000 0.000000 9.363300
6 2 0.000000 1.703183 11.704125
7 2 0.000000 0.000000 14.044950
8 2 0.000000 1.703183 16.385775
9 2 -1.475000 2.554775 0.000000
10 2 -1.475000 4.257958 2.340825
11 2 -1.475000 2.554775 4.681650
12 2 -1.475000 4.257958 7.022475
13 2 -1.475000 2.554775 9.363300
14 2 -1.475000 4.257958 11.704125
15 2 -1.475000 2.554775 14.044950
16 2 -1.475000 4.257958 16.385775
17 2 -2.950000 5.109550 0.000000
18 2 -2.950000 6.812733 2.340825
19 2 -2.950000 5.109550 4.681650
20 2 -2.950000 6.812733 7.022475
21 2 -2.950000 5.109550 9.363300
22 2 -2.950000 6.812733 11.704125
23 2 -2.950000 5.109550 14.044950
24 2 -2.950000 6.812733 16.385775
25 2 -4.425000 7.664325 0.000000
26 2 -4.425000 9.367508 2.340825
27 2 -4.425000 7.664325 4.681650
28 2 -4.425000 9.367508 7.022475
29 2 -4.425000 7.664325 9.363300
30 2 -4.425000 9.367508 11.704125
31 2 -4.425000 7.664325 14.044950
32 2 -4.425000 9.367508 16.385775
33 2 2.950000 0.000000 0.000000
34 2 2.950000 1.703183 2.340825
35 2 2.950000 0.000000 4.681650
36 2 2.950000 1.703183 7.022475
37 2 2.950000 0.000000 9.363300
38 2 2.950000 1.703183 11.704125
39 2 2.950000 0.000000 14.044950
40 2 2.950000 1.703183 16.385775
41 2 1.475000 2.554775 0.000000
42 2 1.475000 4.257958 2.340825
43 2 1.475000 2.554775 4.681650
44 2 1.475000 4.257958 7.022475
45 2 1.475000 2.554775 9.363300
46 2 1.475000 4.257958 11.704125
47 2 1.475000 2.554775 14.044950
48 2 1.475000 4.257958 16.385775
49 2 0.000000 5.109550 0.000000
50 2 0.000000 6.812733 2.340825
51 2 0.000000 5.109550 4.681650
52 2 0.000000 6.812733 7.022475
53 2 0.000000 5.109550 9.363300
54 2 0.000000 6.812733 11.704125
55 2 0.000000 5.109550 14.044950
56 2 0.000000 6.812733 16.385775
57 2 -1.475000 7.664325 0.000000
58 2 -1.475000 9.367508 2.340825
59 2 -1.475000 7.664325 4.681650
60 2 -1.475000 9.367508 7.022475
61 2 -1.475000 7.664325 9.363300
62 2 -1.475000 9.367508 11.704125
63 2 -1.475000 7.664325 14.044950
64 2 -1.475000 9.367508 16.385775
65 2 5.900000 0.000000 0.000000
66 2 5.900000 1.703183 2.340825
67 2 5.900000 0.000000 4.681650
68 2 5.900000 1.703183 7.022475
69 2 5.900000 0.000000 9.363300
70 2 5.900000 1.703183 11.704125
71 2 5.900000 0.000000 14.044950
72 2 5.900000 1.703183 16.385775
73 2 4.425000 2.554775 0.000000
74 2 4.425000 4.257958 2.340825
75 2 4.425000 2.554775 4.681650
76 2 4.425000 4.257958 7.022475
77 2 4.425000 2.554775 9.363300
78 2 4.425000 4.257958 11.704125
79 2 4.425000 2.554775 14.044950
80 2 4.425000 4.257958 16.385775
81 2 2.950000 5.109550 0.000000
82 2 2.950000 6.812733 2.340825
83 2 2.950000 5.109550 4.681650
84 2 2.950000 6.812733 7.022475
85 2 2.950000 5.109550 9.363300
86 2 2.950000 6.812733 11.704125
87 2 2.950000 5.109550 14.044950
88 2 2.950000 6.812733 16.385775
89 2 1.475000 7.664325 0.000000
90 2 1.475000 9.367508 2.340825
91 2 1.475000 7.664325 4.681650
92 2 1.475000 9.367508 7.022475
93 2 1.475000 7.664325 9.363300
94 2 1.475000 9.367508 11.704125
95 2 1.475000 7.664325 14.044950
96 2 1.475000 9.367508 16.385775
97 2 8.850000 0.000000 0.000000
98 2 8.850000 1.703183 2.340825
99 2 8.850000 0.000000 4.681650
100 2 8.850000 1.703183 7.022475
101 2 8.850000 0.000000 9.363300
102 2 8.850000 1.703183 11.704125
103 2 8.850000 0.000000 14.044950
104 2 8.850000 1.703183 16.385775
105 2 7.375000 2.554775 0.000000
106 2 7.375000 4.257958 2.340825
107 2 7.375000 2.554775 4.681650
108 2 7.375000 4.257958 7.022475
109 2 7.375000 2.554775 9.363300
110 2 7.375000 4.257958 11.704125
111 2 7.375000 2.554775 14.044950
112 2 7.375000 4.257958 16.385775
113 2 5.900000 5.109550 0.000000
114 2 5.900000 6.812733 2.340825
115 2 5.900000 5.109550 4.681650
116 2 5.900000 6.812733 7.022475
117 2 5.900000 5.109550 9.363300
118 2 5.900000 6.812733 11.704125
119 2 5.900000 5.109550 14.044950
120 2 5.900000 6.812733 16.385775
121 2 4.425000 7.664325 0.000000
122 2 4.425000 9.367508 2.340825
123 2 4.425000 7.664325 4.681650
124 2 4.425000 9.367508 7.022475
125 2 4.425000 7.664325 9.363300
126 2 4.425000 9.367508 11.704125
127 2 4.425000 7.664325 14.044950
128 2 4.425000 9.367508 16.385775
